variables = "time","head","temp",                            "conc","vx","vz","sig_kk","kx"
zone
  1.00000000E+01   -2.91038305E-10    2.24815706E+01    3.00000000E-03    0.00000000E+00    0.00000000E+00   -9.09099740E+00    2.07030000E+00
  2.00000000E+01   -3.20142135E-10    2.24815705E+01    3.00000000E-03   -1.18932642E-13    1.36557432E-13   -3.94063291E+01    2.07030000E+00
  3.00000000E+01   -3.20142135E-10    2.24815699E+01    3.00000000E-03   -1.27224620E-13    1.21569421E-13   -3.94063291E+01    2.07030000E+00
  4.00000000E+01   -3.20142135E-10    2.24815683E+01    3.00000000E-03   -1.28144023E-13    1.17406085E-13   -3.94063291E+01    2.07030000E+00
  5.00000000E+01   -3.20142135E-10    2.24815647E+01    3.00000000E-03   -1.28751176E-13    1.13797860E-13   -3.94063291E+01    2.07030000E+00
  6.00000000E+01   -3.20142135E-10    2.24815580E+01    3.00000000E-03   -1.29254246E-13    1.10189635E-13   -3.94063291E+01    2.07030000E+00
  7.00000000E+01   -3.20142135E-10    2.24815464E+01    3.00000000E-03   -1.33001249E-13    1.07414078E-13   -3.94063291E+01    2.07030000E+00
  8.00000000E+01   -3.20142135E-10    2.24815282E+01    3.00000000E-03   -1.33348194E-13    1.05193632E-13   -3.94063291E+01    2.07030000E+00
  9.00000000E+01   -3.20142135E-10    2.24815011E+01    3.00000000E-03   -1.33660444E-13    1.03528297E-13   -3.94063291E+01    2.07030000E+00
  1.00000000E+02   -3.20142135E-10    2.24814626E+01    3.00000000E-03   -1.33920652E-13    1.02140518E-13   -3.94063291E+01    2.07030000E+00
  1.10000000E+02   -3.20142135E-10    2.24814098E+01    3.00000000E-03   -1.34128819E-13    1.00475184E-13   -3.94063291E+01    2.07030000E+00
  1.20000000E+02   -3.20142135E-10    2.24813398E+01    3.00000000E-03   -1.34198208E-13    9.99200722E-14   -6.80948941E+01    2.07030000E+00
  1.30000000E+02   -3.20142135E-10    2.24812492E+01    3.00000000E-03   -1.34441069E-13    9.88098492E-14   -6.80948941E+01    2.07030000E+00
  1.40000000E+02   -3.20142135E-10    2.24811346E+01    3.00000000E-03   -1.34527806E-13    9.79771819E-14   -6.80948941E+01    2.07030000E+00
  1.50000000E+02   -3.20142135E-10    2.24809924E+01    3.00000000E-03   -1.34683931E-13    9.76996262E-14   -6.80948941E+01    2.07030000E+00
  1.60000000E+02   -3.20142135E-10    2.24808189E+01    3.00000000E-03   -1.34822709E-13    9.65894031E-14   -6.80948941E+01    2.07030000E+00
  1.70000000E+02   -3.20142135E-10    2.24806101E+01    3.00000000E-03   -1.34926792E-13    9.65894031E-14   -6.80948941E+01    2.07030000E+00
  1.80000000E+02   -3.20142135E-10    2.24803621E+01    3.00000000E-03   -1.34978834E-13    9.57567359E-14   -6.80948941E+01    2.07030000E+00
  1.90000000E+02   -3.20142135E-10    2.24800711E+01    3.00000000E-03   -1.35013528E-13    9.57567359E-14   -6.80948941E+01    2.07030000E+00
  2.00000000E+02   -3.20142135E-10    2.24797330E+01    3.00000000E-03   -1.35030875E-13    9.54791801E-14   -6.80948941E+01    2.07030000E+00
  2.10000000E+02   -3.20142135E-10    2.24793438E+01    3.00000000E-03   -1.35082917E-13    9.52016244E-14   -6.80948941E+01    2.07030000E+00
  2.20000000E+02   -3.20142135E-10    2.24788996E+01    3.00000000E-03   -1.35082917E-13    9.52016244E-14   -1.07642244E+02    2.07030000E+00
  2.30000000E+02   -3.20142135E-10    2.24783965E+01    3.00000000E-03   -1.35082917E-13    9.52016244E-14   -1.07642244E+02    2.07030000E+00
  2.40000000E+02   -3.20142135E-10    2.24778307E+01    3.00000000E-03   -1.35082917E-13    9.52016244E-14   -1.07642244E+02    2.07030000E+00
  2.50000000E+02   -3.20142135E-10    2.24771984E+01    3.00000000E-03   -1.35082917E-13    9.52016244E-14   -1.07642244E+02    2.07030000E+00
  2.60000000E+02   -3.20142135E-10    2.24764960E+01    3.00000000E-03   -1.35082917E-13    9.52016244E-14   -1.07642244E+02    2.07030000E+00
  2.70000000E+02   -3.20142135E-10    2.24757199E+01    3.00000000E-03   -1.35082917E-13    9.52016244E-14   -1.07642244E+02    2.07030000E+00
  2.80000000E+02   -3.20142135E-10    2.24748666E+01    3.00000000E-03   -1.35082917E-13    9.52016244E-14   -1.07642244E+02    2.07030000E+00
  2.90000000E+02   -3.20142135E-10    2.24739330E+01    3.00000000E-03   -1.35082917E-13    9.52016244E-14   -1.07642244E+02    2.07030000E+00
  3.00000000E+02   -3.20142135E-10    2.24729157E+01    3.00000000E-03   -1.35082917E-13    9.52016244E-14   -1.07642244E+02    2.07030000E+00
  3.10000000E+02   -3.20142135E-10    2.24718119E+01    3.00000000E-03   -1.35082917E-13    9.52016244E-14   -1.07642244E+02    2.07030000E+00
  3.20000000E+02   -3.20142135E-10    2.24706187E+01    3.00000000E-03   -1.35082917E-13    9.52016244E-14   -1.60912962E+02    2.07030000E+00
  3.30000000E+02   -3.20142135E-10    2.24693333E+01    3.00000000E-03   -1.35082917E-13    9.52016244E-14   -1.60912962E+02    2.07030000E+00
  3.40000000E+02   -3.20142135E-10    2.24679532E+01    3.00000000E-03   -1.35082917E-13    9.52016244E-14   -1.60912962E+02    2.07030000E+00
  3.50000000E+02   -3.20142135E-10    2.24664760E+01    3.00000000E-03   -1.35082917E-13    9.52016244E-14   -1.60912962E+02    2.07030000E+00
  3.60000000E+02   -3.20142135E-10    2.24648995E+01    3.00000000E-03   -1.35082917E-13    9.52016244E-14   -1.60912962E+02    2.07030000E+00
  3.70000000E+02   -3.20142135E-10    2.24632216E+01    3.00000000E-03   -1.35082917E-13    9.52016244E-14   -1.60912962E+02    2.07030000E+00
  3.80000000E+02   -3.20142135E-10    2.24614404E+01    3.00000000E-03   -1.35082917E-13    9.52016244E-14   -1.60912962E+02    2.07030000E+00
  3.90000000E+02   -3.20142135E-10    2.24595541E+01    3.00000000E-03   -1.35082917E-13    9.52016244E-14   -1.60912962E+02    2.07030000E+00
  4.00000000E+02   -3.20142135E-10    2.24575613E+01    3.00000000E-03   -1.35082917E-13    9.52016244E-14   -1.60912962E+02    2.07030000E+00
  4.10000000E+02   -3.20142135E-10    2.24554603E+01    3.00000000E-03   -1.35082917E-13    9.52016244E-14   -1.60912962E+02    2.07030000E+00
  4.20000000E+02   -3.20142135E-10    2.24532500E+01    3.00000000E-03   -1.35082917E-13    9.52016244E-14   -2.00650480E+02    2.07030000E+00
  4.30000000E+02   -3.20142135E-10    2.24509293E+01    3.00000000E-03   -1.35082917E-13    9.52016244E-14   -2.00650480E+02    2.07030000E+00
  4.40000000E+02   -3.20142135E-10    2.24484971E+01    3.00000000E-03   -1.35082917E-13    9.52016244E-14   -2.00650480E+02    2.07030000E+00
  4.50000000E+02   -3.20142135E-10    2.24459526E+01    3.00000000E-03   -1.35082917E-13    9.52016244E-14   -2.00650480E+02    2.07030000E+00
  4.60000000E+02   -3.20142135E-10    2.24432951E+01    3.00000000E-03   -1.35082917E-13    9.52016244E-14   -2.00650480E+02    2.07030000E+00
  4.70000000E+02   -3.20142135E-10    2.24405241E+01    3.00000000E-03   -1.35082917E-13    9.52016244E-14   -2.00650480E+02    2.07030000E+00
  4.80000000E+02   -3.20142135E-10    2.24376391E+01    3.00000000E-03   -1.35082917E-13    9.52016244E-14   -2.00650480E+02    2.07030000E+00
  4.90000000E+02   -3.20142135E-10    2.24346399E+01    3.00000000E-03   -1.35082917E-13    9.52016244E-14   -2.00650480E+02    2.07030000E+00
  5.00000000E+02   -3.20142135E-10    2.24315261E+01    3.00000000E-03   -1.35082917E-13    9.52016244E-14   -2.00650480E+02    2.07030000E+00
  5.10000000E+02   -3.20142135E-10    2.24282979E+01    3.00000000E-03   -1.35082917E-13    9.52016244E-14   -2.00650480E+02    2.07030000E+00
  5.20000000E+02   -3.20142135E-10    2.24249551E+01    3.00000000E-03   -1.35082917E-13    9.52016244E-14   -2.37043492E+02    2.07030000E+00
  5.30000000E+02   -3.20142135E-10    2.24214980E+01    3.00000000E-03   -1.35082917E-13    9.52016244E-14   -2.37043492E+02    2.07030000E+00
  5.40000000E+02   -3.20142135E-10    2.24179268E+01    3.00000000E-03   -1.35082917E-13    9.52016244E-14   -2.37043492E+02    2.07030000E+00
  5.50000000E+02   -3.20142135E-10    2.24142420E+01    3.00000000E-03   -1.35082917E-13    9.52016244E-14   -2.37043492E+02    2.07030000E+00
  5.60000000E+02   -3.20142135E-10    2.24104438E+01    3.00000000E-03   -1.35082917E-13    9.52016244E-14   -2.37043492E+02    2.07030000E+00
  5.70000000E+02   -3.20142135E-10    2.24065329E+01    3.00000000E-03   -1.35082917E-13    9.52016244E-14   -2.37043492E+02    2.07030000E+00
  5.80000000E+02   -3.20142135E-10    2.24025099E+01    3.00000000E-03   -1.35082917E-13    9.52016244E-14   -2.37043492E+02    2.07030000E+00
  5.90000000E+02   -3.20142135E-10    2.23983755E+01    3.00000000E-03   -1.35082917E-13    9.52016244E-14   -2.37043492E+02    2.07030000E+00
  6.00000000E+02   -3.20142135E-10    2.23941305E+01    3.00000000E-03   -1.35082917E-13    9.52016244E-14   -2.37043492E+02    2.07030000E+00
  6.10000000E+02   -3.20142135E-10    2.23897757E+01    3.00000000E-03   -1.35082917E-13    9.52016244E-14   -2.37043492E+02    2.07030000E+00
  6.20000000E+02   -3.20142135E-10    2.23853120E+01    3.00000000E-03   -1.35082917E-13    9.52016244E-14   -2.97395724E+02    2.07030000E+00
  6.30000000E+02   -3.20142135E-10    2.23807405E+01    3.00000000E-03   -1.35082917E-13    9.52016244E-14   -2.97395724E+02    2.07030000E+00
  6.40000000E+02   -3.20142135E-10    2.23760621E+01    3.00000000E-03   -1.35082917E-13    9.52016244E-14   -2.97395724E+02    2.07030000E+00
  6.50000000E+02   -3.20142135E-10    2.23712780E+01    3.00000000E-03   -1.35082917E-13    9.52016244E-14   -2.97395724E+02    2.07030000E+00
  6.60000000E+02   -3.20142135E-10    2.23663892E+01    3.00000000E-03   -1.35082917E-13    9.52016244E-14   -2.97395724E+02    2.07030000E+00
  6.70000000E+02   -3.20142135E-10    2.23613971E+01    3.00000000E-03   -1.35082917E-13    9.52016244E-14   -2.97395724E+02    2.07030000E+00
  6.80000000E+02   -3.20142135E-10    2.23563027E+01    3.00000000E-03   -1.35082917E-13    9.52016244E-14   -2.97395724E+02    2.07030000E+00
  6.90000000E+02   -3.20142135E-10    2.23511075E+01    3.00000000E-03   -1.35082917E-13    9.52016244E-14   -2.97395724E+02    2.07030000E+00
  7.00000000E+02   -3.20142135E-10    2.23458127E+01    3.00000000E-03   -1.35082917E-13    9.52016244E-14   -2.97395724E+02    2.07030000E+00
  7.10000000E+02   -3.20142135E-10    2.23404196E+01    3.00000000E-03   -1.35082917E-13    9.52016244E-14   -2.97395724E+02    2.07030000E+00
  7.20000000E+02   -3.20142135E-10    2.23349297E+01    3.00000000E-03   -1.35082917E-13    9.52016244E-14   -3.37714584E+02    2.07030000E+00
  7.30000000E+02   -3.20142135E-10    2.23293443E+01    3.00000000E-03   -1.35082917E-13    9.52016244E-14   -3.37714584E+02    2.07030000E+00
  7.40000000E+02   -3.20142135E-10    2.23236650E+01    3.00000000E-03   -1.35082917E-13    9.52016244E-14   -3.37714584E+02    2.07030000E+00
  7.50000000E+02   -3.20142135E-10    2.23178930E+01    3.00000000E-03   -1.35082917E-13    9.52016244E-14   -3.37714584E+02    2.07030000E+00
  7.60000000E+02   -3.20142135E-10    2.23120300E+01    3.00000000E-03   -1.35082917E-13    9.52016244E-14   -3.37714584E+02    2.07030000E+00
  7.70000000E+02   -3.20142135E-10    2.23060775E+01    3.00000000E-03   -1.35082917E-13    9.52016244E-14   -3.37714584E+02    2.07030000E+00
  7.80000000E+02   -3.20142135E-10    2.23000368E+01    3.00000000E-03   -1.35082917E-13    9.52016244E-14   -3.37714584E+02    2.07030000E+00
  7.90000000E+02   -3.20142135E-10    2.22939096E+01    3.00000000E-03   -1.35082917E-13    9.52016244E-14   -3.37714584E+02    2.07030000E+00
  8.00000000E+02   -3.20142135E-10    2.22876974E+01    3.00000000E-03   -1.35082917E-13    9.52016244E-14   -3.37714584E+02    2.07030000E+00
  8.10000000E+02   -3.20142135E-10    2.22814017E+01    3.00000000E-03   -1.35082917E-13    9.52016244E-14   -3.37714584E+02    2.07030000E+00
  8.20000000E+02   -3.20142135E-10    2.22750241E+01    3.00000000E-03   -1.35082917E-13    9.52016244E-14   -3.62145807E+02    2.07030000E+00
  8.30000000E+02   -3.20142135E-10    2.22685661E+01    3.00000000E-03   -1.35082917E-13    9.52016244E-14   -3.62145807E+02    2.07030000E+00
  8.40000000E+02   -3.20142135E-10    2.22620294E+01    3.00000000E-03   -1.35082917E-13    9.52016244E-14   -3.62145807E+02    2.07030000E+00
  8.50000000E+02   -3.20142135E-10    2.22554154E+01    3.00000000E-03   -1.35082917E-13    9.52016244E-14   -3.62145807E+02    2.07030000E+00
  8.60000000E+02   -3.20142135E-10    2.22487258E+01    3.00000000E-03   -1.35082917E-13    9.52016244E-14   -3.62145807E+02    2.07030000E+00
  8.70000000E+02   -3.20142135E-10    2.22419620E+01    3.00000000E-03   -1.35082917E-13    9.52016244E-14   -3.62145807E+02    2.07030000E+00
  8.80000000E+02   -3.20142135E-10    2.22351257E+01    3.00000000E-03   -1.35082917E-13    9.52016244E-14   -3.62145807E+02    2.07030000E+00
  8.90000000E+02   -3.20142135E-10    2.22282184E+01    3.00000000E-03   -1.35082917E-13    9.52016244E-14   -3.62145807E+02    2.07030000E+00
  9.00000000E+02   -3.20142135E-10    2.22212417E+01    3.00000000E-03   -1.35082917E-13    9.52016244E-14   -3.62145807E+02    2.07030000E+00
  9.10000000E+02   -3.20142135E-10    2.22141971E+01    3.00000000E-03   -1.35082917E-13    9.52016244E-14   -3.62145807E+02    2.07030000E+00
  9.20000000E+02   -3.20142135E-10    2.22070862E+01    3.00000000E-03   -1.35082917E-13    9.52016244E-14   -4.24396815E+02    2.07030000E+00
  9.30000000E+02   -3.20142135E-10    2.21999104E+01    3.00000000E-03   -1.35082917E-13    9.52016244E-14   -4.24396815E+02    2.07030000E+00
  9.40000000E+02   -3.20142135E-10    2.21926714E+01    3.00000000E-03   -1.35082917E-13    9.52016244E-14   -4.24396815E+02    2.07030000E+00
  9.50000000E+02   -3.20142135E-10    2.21853705E+01    3.00000000E-03   -1.35082917E-13    9.52016244E-14   -4.24396815E+02    2.07030000E+00
  9.60000000E+02   -3.20142135E-10    2.21780094E+01    3.00000000E-03   -1.35082917E-13    9.52016244E-14   -4.24396815E+02    2.07030000E+00
  9.70000000E+02   -3.20142135E-10    2.21705895E+01    3.00000000E-03   -1.35082917E-13    9.52016244E-14   -4.24396815E+02    2.07030000E+00
  9.80000000E+02   -3.20142135E-10    2.21631123E+01    3.00000000E-03   -1.35082917E-13    9.52016244E-14   -4.24396815E+02    2.07030000E+00
  9.90000000E+02   -3.20142135E-10    2.21555793E+01    3.00000000E-03   -1.35082917E-13    9.52016244E-14   -4.24396815E+02    2.07030000E+00
  1.00000000E+03   -3.20142135E-10    2.21479919E+01    3.00000000E-03   -1.35082917E-13    9.52016244E-14   -4.24396815E+02    2.07030000E+00
  1.01000000E+03   -3.20142135E-10    2.21403515E+01    3.00000000E-03   -1.35082917E-13    9.52016244E-14   -4.24396815E+02    2.07030000E+00
  1.02000000E+03   -3.20142135E-10    2.21326596E+01    3.00000000E-03   -1.35082917E-13    9.52016244E-14   -4.59765449E+02    2.07030000E+00
  1.03000000E+03   -3.20142135E-10    2.21249176E+01    3.00000000E-03   -1.35082917E-13    9.52016244E-14   -4.59765449E+02    2.07030000E+00
  1.04000000E+03   -3.20142135E-10    2.21171268E+01    3.00000000E-03   -1.35082917E-13    9.52016244E-14   -4.59765449E+02    2.07030000E+00
  1.05000000E+03   -3.20142135E-10    2.21092887E+01    3.00000000E-03   -1.35082917E-13    9.52016244E-14   -4.59765449E+02    2.07030000E+00
  1.06000000E+03   -3.20142135E-10    2.21014047E+01    3.00000000E-03   -1.35082917E-13    9.52016244E-14   -4.59765449E+02    2.07030000E+00
  1.07000000E+03   -3.20142135E-10    2.20934759E+01    3.00000000E-03   -1.35082917E-13    9.52016244E-14   -4.59765449E+02    2.07030000E+00
  1.08000000E+03   -3.20142135E-10    2.20855039E+01    3.00000000E-03   -1.35082917E-13    9.52016244E-14   -4.59765449E+02    2.07030000E+00
  1.09000000E+03   -3.20142135E-10    2.20774899E+01    3.00000000E-03   -1.35082917E-13    9.52016244E-14   -4.59765449E+02    2.07030000E+00
  1.10000000E+03   -3.20142135E-10    2.20694352E+01    3.00000000E-03   -1.35082917E-13    9.52016244E-14   -4.59765449E+02    2.07030000E+00
  1.11000000E+03   -3.20142135E-10    2.20613411E+01    3.00000000E-03   -1.35082917E-13    9.52016244E-14   -4.59765449E+02    2.07030000E+00
  1.12000000E+03   -3.20142135E-10    2.20532087E+01    3.00000000E-03   -1.35082917E-13    9.52016244E-14   -4.68060155E+02    2.07030000E+00
  1.13000000E+03   -3.20142135E-10    2.20450395E+01    3.00000000E-03   -1.35082917E-13    9.52016244E-14   -4.68060155E+02    2.07030000E+00
  1.14000000E+03   -3.20142135E-10    2.20368346E+01    3.00000000E-03   -1.35082917E-13    9.52016244E-14   -4.68060155E+02    2.07030000E+00
  1.15000000E+03   -3.20142135E-10    2.20285951E+01    3.00000000E-03   -1.35082917E-13    9.52016244E-14   -4.68060155E+02    2.07030000E+00
  1.16000000E+03   -3.20142135E-10    2.20203224E+01    3.00000000E-03   -1.35082917E-13    9.52016244E-14   -4.68060155E+02    2.07030000E+00
  1.17000000E+03   -3.20142135E-10    2.20120175E+01    3.00000000E-03   -1.35082917E-13    9.52016244E-14   -4.68060155E+02    2.07030000E+00
  1.18000000E+03   -3.20142135E-10    2.20036817E+01    3.00000000E-03   -1.35082917E-13    9.52016244E-14   -4.68060155E+02    2.07030000E+00
  1.19000000E+03   -3.20142135E-10    2.19953160E+01    3.00000000E-03   -1.35082917E-13    9.52016244E-14   -4.68060155E+02    2.07030000E+00
  1.20000000E+03   -3.20142135E-10    2.19869215E+01    3.00000000E-03   -1.35082917E-13    9.52016244E-14   -4.68060155E+02    2.07030000E+00
  1.21000000E+03   -3.20142135E-10    2.19784994E+01    3.00000000E-03   -1.35082917E-13    9.52016244E-14   -4.68060155E+02    2.07030000E+00
  1.22000000E+03   -3.20142135E-10    2.19700508E+01    3.00000000E-03   -1.35082917E-13    9.52016244E-14   -5.29721378E+02    2.07030000E+00
  1.23000000E+03   -3.20142135E-10    2.19615767E+01    3.00000000E-03   -1.35082917E-13    9.52016244E-14   -5.29721378E+02    2.07030000E+00
  1.24000000E+03   -3.20142135E-10    2.19530781E+01    3.00000000E-03   -1.35082917E-13    9.52016244E-14   -5.29721378E+02    2.07030000E+00
  1.25000000E+03   -3.20142135E-10    2.19445561E+01    3.00000000E-03   -1.35082917E-13    9.52016244E-14   -5.29721378E+02    2.07030000E+00
  1.26000000E+03   -3.20142135E-10    2.19360116E+01    3.00000000E-03   -1.35082917E-13    9.52016244E-14   -5.29721378E+02    2.07030000E+00
  1.27000000E+03   -3.20142135E-10    2.19274458E+01    3.00000000E-03   -1.35082917E-13    9.52016244E-14   -5.29721378E+02    2.07030000E+00
  1.28000000E+03   -3.20142135E-10    2.19188595E+01    3.00000000E-03   -1.35082917E-13    9.52016244E-14   -5.29721378E+02    2.07030000E+00
  1.29000000E+03   -3.20142135E-10    2.19102536E+01    3.00000000E-03   -1.35082917E-13    9.52016244E-14   -5.29721378E+02    2.07030000E+00
  1.30000000E+03   -3.20142135E-10    2.19016293E+01    3.00000000E-03   -1.35082917E-13    9.52016244E-14   -5.29721378E+02    2.07030000E+00
  1.31000000E+03   -3.20142135E-10    2.18929873E+01    3.00000000E-03   -1.35082917E-13    9.52016244E-14   -5.29721378E+02    2.07030000E+00
  1.32000000E+03   -3.20142135E-10    2.18843285E+01    3.00000000E-03   -1.35082917E-13    9.52016244E-14   -5.55458389E+02    2.07030000E+00
  1.33000000E+03   -3.20142135E-10    2.18756539E+01    3.00000000E-03   -1.35082917E-13    9.52016244E-14   -5.55458389E+02    2.07030000E+00
  1.34000000E+03   -3.20142135E-10    2.18669644E+01    3.00000000E-03   -1.35082917E-13    9.52016244E-14   -5.55458389E+02    2.07030000E+00
  1.35000000E+03   -3.20142135E-10    2.18582607E+01    3.00000000E-03   -1.35082917E-13    9.52016244E-14   -5.55458389E+02    2.07030000E+00
  1.36000000E+03   -3.20142135E-10    2.18495437E+01    3.00000000E-03   -1.35082917E-13    9.52016244E-14   -5.55458389E+02    2.07030000E+00
  1.37000000E+03   -3.20142135E-10    2.18408143E+01    3.00000000E-03   -1.35082917E-13    9.52016244E-14   -5.55458389E+02    2.07030000E+00
  1.38000000E+03   -3.20142135E-10    2.18320732E+01    3.00000000E-03   -1.35082917E-13    9.52016244E-14   -5.55458389E+02    2.07030000E+00
  1.39000000E+03   -3.20142135E-10    2.18233212E+01    3.00000000E-03   -1.35082917E-13    9.52016244E-14   -5.55458389E+02    2.07030000E+00
  1.40000000E+03   -3.20142135E-10    2.18145592E+01    3.00000000E-03   -1.35082917E-13    9.52016244E-14   -5.55458389E+02    2.07030000E+00
  1.41000000E+03   -3.20142135E-10    2.18057878E+01    3.00000000E-03   -1.35082917E-13    9.52016244E-14   -5.55458389E+02    2.07030000E+00
  1.42000000E+03   -3.20142135E-10    2.17970078E+01    3.00000000E-03   -1.35082917E-13    9.52016244E-14   -5.45163793E+02    2.07030000E+00
  1.43000000E+03   -3.20142135E-10    2.17882200E+01    3.00000000E-03   -1.35082917E-13    9.52016244E-14   -5.45163793E+02    2.07030000E+00
  1.44000000E+03   -3.20142135E-10    2.17794250E+01    3.00000000E-03   -1.35082917E-13    9.52016244E-14   -5.45163793E+02    2.07030000E+00
  1.45000000E+03   -3.20142135E-10    2.17706235E+01    3.00000000E-03   -1.35082917E-13    9.52016244E-14   -5.45163793E+02    2.07030000E+00
  1.46000000E+03   -3.20142135E-10    2.17618163E+01    3.00000000E-03   -1.35082917E-13    9.52016244E-14   -5.45163793E+02    2.07030000E+00
  1.47000000E+03   -3.20142135E-10    2.17530041E+01    3.00000000E-03   -1.35082917E-13    9.52016244E-14   -5.45163793E+02    2.07030000E+00
  1.48000000E+03   -3.20142135E-10    2.17441873E+01    3.00000000E-03   -1.35082917E-13    9.52016244E-14   -5.45163793E+02    2.07030000E+00
  1.49000000E+03   -3.20142135E-10    2.17353668E+01    3.00000000E-03   -1.35082917E-13    9.52016244E-14   -5.45163793E+02    2.07030000E+00
  1.50000000E+03   -3.20142135E-10    2.17265431E+01    3.00000000E-03   -1.35082917E-13    9.52016244E-14   -5.45163793E+02    2.07030000E+00
  1.51000000E+03   -3.20142135E-10    2.17177168E+01    3.00000000E-03   -1.35082917E-13    9.52016244E-14   -5.45163793E+02    2.07030000E+00
  1.52000000E+03   -3.20142135E-10    2.17088886E+01    3.00000000E-03   -1.35082917E-13    9.52016244E-14   -6.04782169E+02    2.07030000E+00
  1.53000000E+03   -3.20142135E-10    2.17000591E+01    3.00000000E-03   -1.35082917E-13    9.52016244E-14   -6.04782169E+02    2.07030000E+00
  1.54000000E+03   -3.20142135E-10    2.16912287E+01    3.00000000E-03   -1.35082917E-13    9.52016244E-14   -6.04782169E+02    2.07030000E+00
  1.55000000E+03   -3.20142135E-10    2.16823981E+01    3.00000000E-03   -1.35082917E-13    9.52016244E-14   -6.04782169E+02    2.07030000E+00
  1.56000000E+03   -3.20142135E-10    2.16735679E+01    3.00000000E-03   -1.35082917E-13    9.52016244E-14   -6.04782169E+02    2.07030000E+00
  1.57000000E+03   -3.20142135E-10    2.16647385E+01    3.00000000E-03   -1.35082917E-13    9.52016244E-14   -6.04782169E+02    2.07030000E+00
  1.58000000E+03   -3.20142135E-10    2.16559104E+01    3.00000000E-03   -1.35082917E-13    9.52016244E-14   -6.04782169E+02    2.07030000E+00
  1.59000000E+03   -3.20142135E-10    2.16470843E+01    3.00000000E-03   -1.35082917E-13    9.52016244E-14   -6.04782169E+02    2.07030000E+00
  1.60000000E+03   -3.20142135E-10    2.16382606E+01    3.00000000E-03   -1.35082917E-13    9.52016244E-14   -6.04782169E+02    2.07030000E+00
  1.61000000E+03   -3.20142135E-10    2.16294398E+01    3.00000000E-03   -1.35082917E-13    9.52016244E-14   -6.04782169E+02    2.07030000E+00
  1.62000000E+03   -3.20142135E-10    2.16206224E+01    3.00000000E-03   -1.35082917E-13    9.52016244E-14   -6.16370134E+02    2.07030000E+00
  1.63000000E+03   -3.20142135E-10    2.16118088E+01    3.00000000E-03   -1.35082917E-13    9.52016244E-14   -6.16370134E+02    2.07030000E+00
  1.64000000E+03   -3.20142135E-10    2.16029995E+01    3.00000000E-03   -1.35082917E-13    9.52016244E-14   -6.16370134E+02    2.07030000E+00
  1.65000000E+03   -3.20142135E-10    2.15941950E+01    3.00000000E-03   -1.35082917E-13    9.52016244E-14   -6.16370134E+02    2.07030000E+00
  1.66000000E+03   -3.20142135E-10    2.15853956E+01    3.00000000E-03   -1.35082917E-13    9.52016244E-14   -6.16370134E+02    2.07030000E+00
  1.67000000E+03   -3.20142135E-10    2.15766018E+01    3.00000000E-03   -1.35082917E-13    9.52016244E-14   -6.16370134E+02    2.07030000E+00
  1.68000000E+03   -3.20142135E-10    2.15678141E+01    3.00000000E-03   -1.35082917E-13    9.52016244E-14   -6.16370134E+02    2.07030000E+00
  1.69000000E+03   -3.20142135E-10    2.15590328E+01    3.00000000E-03   -1.35082917E-13    9.52016244E-14   -6.16370134E+02    2.07030000E+00
  1.70000000E+03   -3.20142135E-10    2.15502584E+01    3.00000000E-03   -1.35082917E-13    9.52016244E-14   -6.16370134E+02    2.07030000E+00
  1.71000000E+03   -3.20142135E-10    2.15414911E+01    3.00000000E-03   -1.35082917E-13    9.52016244E-14   -6.16370134E+02    2.07030000E+00
  1.72000000E+03   -3.20142135E-10    2.15327314E+01    3.00000000E-03   -1.35082917E-13    9.52016244E-14   -5.86360881E+02    2.07030000E+00
  1.73000000E+03   -3.20142135E-10    2.15239797E+01    3.00000000E-03   -1.35082917E-13    9.52016244E-14   -5.86360881E+02    2.07030000E+00
  1.74000000E+03   -3.20142135E-10    2.15152363E+01    3.00000000E-03   -1.35082917E-13    9.52016244E-14   -5.86360881E+02    2.07030000E+00
  1.75000000E+03   -3.20142135E-10    2.15065016E+01    3.00000000E-03   -1.35082917E-13    9.52016244E-14   -5.86360881E+02    2.07030000E+00
  1.76000000E+03   -3.20142135E-10    2.14977758E+01    3.00000000E-03   -1.35082917E-13    9.52016244E-14   -5.86360881E+02    2.07030000E+00
  1.77000000E+03   -3.20142135E-10    2.14890594E+01    3.00000000E-03   -1.35082917E-13    9.52016244E-14   -5.86360881E+02    2.07030000E+00
  1.78000000E+03   -3.20142135E-10    2.14803527E+01    3.00000000E-03   -1.35082917E-13    9.52016244E-14   -5.86360881E+02    2.07030000E+00
  1.79000000E+03   -3.20142135E-10    2.14716559E+01    3.00000000E-03   -1.35082917E-13    9.52016244E-14   -5.86360881E+02    2.07030000E+00
  1.80000000E+03   -3.20142135E-10    2.14629694E+01    3.00000000E-03   -1.35082917E-13    9.52016244E-14   -5.86360881E+02    2.07030000E+00
  1.81000000E+03   -3.20142135E-10    2.14542935E+01    3.00000000E-03   -1.35082917E-13    9.52016244E-14   -5.86360881E+02    2.07030000E+00
  1.82000000E+03   -3.20142135E-10    2.14456284E+01    3.00000000E-03   -1.35082917E-13    9.52016244E-14   -6.43114828E+02    2.07030000E+00
  1.83000000E+03   -3.20142135E-10    2.14369745E+01    3.00000000E-03   -1.35082917E-13    9.52016244E-14   -6.43114828E+02    2.07030000E+00
  1.84000000E+03   -3.20142135E-10    2.14283321E+01    3.00000000E-03   -1.35082917E-13    9.52016244E-14   -6.43114828E+02    2.07030000E+00
  1.85000000E+03   -3.20142135E-10    2.14197013E+01    3.00000000E-03   -1.35082917E-13    9.52016244E-14   -6.43114828E+02    2.07030000E+00
  1.86000000E+03   -3.20142135E-10    2.14110825E+01    3.00000000E-03   -1.35082917E-13    9.52016244E-14   -6.43114828E+02    2.07030000E+00
  1.87000000E+03   -3.20142135E-10    2.14024758E+01    3.00000000E-03   -1.35082917E-13    9.52016244E-14   -6.43114828E+02    2.07030000E+00
  1.88000000E+03   -3.20142135E-10    2.13938817E+01    3.00000000E-03   -1.35082917E-13    9.52016244E-14   -6.43114828E+02    2.07030000E+00
  1.89000000E+03   -3.20142135E-10    2.13853002E+01    3.00000000E-03   -1.35082917E-13    9.52016244E-14   -6.43114828E+02    2.07030000E+00
  1.90000000E+03   -3.20142135E-10    2.13767317E+01    3.00000000E-03   -1.35082917E-13    9.52016244E-14   -6.43114828E+02    2.07030000E+00
  1.91000000E+03   -3.20142135E-10    2.13681763E+01    3.00000000E-03   -1.35082917E-13    9.52016244E-14   -6.43114828E+02    2.07030000E+00
  1.92000000E+03   -3.20142135E-10    2.13596343E+01    3.00000000E-03   -1.35082917E-13    9.52016244E-14   -6.36396692E+02    2.07030000E+00
  1.93000000E+03   -3.20142135E-10    2.13511059E+01    3.00000000E-03   -1.35082917E-13    9.52016244E-14   -6.36396692E+02    2.07030000E+00
  1.94000000E+03   -3.20142135E-10    2.13425913E+01    3.00000000E-03   -1.35082917E-13    9.52016244E-14   -6.36396692E+02    2.07030000E+00
  1.95000000E+03   -3.20142135E-10    2.13340907E+01    3.00000000E-03   -1.35082917E-13    9.52016244E-14   -6.36396692E+02    2.07030000E+00
  1.96000000E+03   -3.20142135E-10    2.13256043E+01    3.00000000E-03   -1.35082917E-13    9.52016244E-14   -6.36396692E+02    2.07030000E+00
  1.97000000E+03   -3.20142135E-10    2.13171323E+01    3.00000000E-03   -1.35082917E-13    9.52016244E-14   -6.36396692E+02    2.07030000E+00
  1.98000000E+03   -3.20142135E-10    2.13086748E+01    3.00000000E-03   -1.35082917E-13    9.52016244E-14   -6.36396692E+02    2.07030000E+00
  1.99000000E+03   -3.20142135E-10    2.13002321E+01    3.00000000E-03   -1.35082917E-13    9.52016244E-14   -6.36396692E+02    2.07030000E+00
  2.00000000E+03   -3.20142135E-10    2.12918043E+01    3.00000000E-03   -1.35082917E-13    9.52016244E-14   -6.36396692E+02    2.07030000E+00
  2.01000000E+03   -3.20142135E-10    2.12833916E+01    3.00000000E-03   -1.35082917E-13    9.52016244E-14   -6.36396692E+02    2.07030000E+00
  2.02000000E+03   -3.20142135E-10    2.12749942E+01    3.00000000E-03   -1.35082917E-13    9.52016244E-14   -6.09852970E+02    2.07030000E+00
  2.03000000E+03   -3.20142135E-10    2.12666122E+01    3.00000000E-03   -1.35082917E-13    9.52016244E-14   -6.09852970E+02    2.07030000E+00
  2.04000000E+03   -3.20142135E-10    2.12582457E+01    3.00000000E-03   -1.35082917E-13    9.52016244E-14   -6.09852970E+02    2.07030000E+00
  2.05000000E+03   -3.20142135E-10    2.12498950E+01    3.00000000E-03   -1.35082917E-13    9.52016244E-14   -6.09852970E+02    2.07030000E+00
  2.06000000E+03   -3.20142135E-10    2.12415601E+01    3.00000000E-03   -1.35082917E-13    9.52016244E-14   -6.09852970E+02    2.07030000E+00
  2.07000000E+03   -3.20142135E-10    2.12332412E+01    3.00000000E-03   -1.35082917E-13    9.52016244E-14   -6.09852970E+02    2.07030000E+00
  2.08000000E+03   -3.20142135E-10    2.12249384E+01    3.00000000E-03   -1.35082917E-13    9.52016244E-14   -6.09852970E+02    2.07030000E+00
  2.09000000E+03   -3.20142135E-10    2.12166518E+01    3.00000000E-03   -1.35082917E-13    9.52016244E-14   -6.09852970E+02    2.07030000E+00