 title = "surface data"
 variables = "x (m)","jz (mw/m*m)",                       "qx(m/yr)", "qz(m/yr)"
 zone f="point",i=  101
   0.000000000000000  0.000000000000000  1.502929161311223E-004  4.005693057937062E-007 -2.372978059994590E-005
   16000.0000000000  0.000000000000000  1.589848827654462E-004  2.744407822036828E-007  1.807781702112266E-010
   32000.0000000000  0.000000000000000  7.514658534308443E-005  2.824665143712907E-013  4.519492419197135E-011
   48000.0000000000  0.000000000000000  1.589849158266311E-004  0.000000000000000 -2.775557561562891E-016
   64000.0000000000  0.000000000000000  7.514658947582655E-005  0.000000000000000 -1.387778780781446E-016
   80000.0000000000  0.000000000000000  1.589849158266311E-004  0.000000000000000 -2.775557561562891E-016
   96000.0000000000  0.000000000000000  7.514658947582655E-005  0.000000000000000 -1.387778780781446E-016
   112000.000000000  0.000000000000000  1.589849158266311E-004  0.000000000000000 -2.775557561562891E-016
   128000.000000000  0.000000000000000  7.514658947583075E-005  0.000000000000000 -1.387778780781446E-016
   144000.000000000  0.000000000000000  1.589849158266647E-004  0.000000000000000 -2.775557561562891E-016
   160000.000000000  0.000000000000000  7.533794371804838E-005 -1.490777987167569E-018  8.673617379884035E-017
   176000.000000000  0.000000000000000  1.573107558721970E-004  0.000000000000000  1.246572289836934E-013
   192000.000000000  0.000000000000000  7.117210413880803E-005  3.469446951953614E-017 -3.552713678800501E-014
   208000.000000000  0.000000000000000  1.461628251730225E-004  0.000000000000000  0.000000000000000
   224000.000000000  0.000000000000000  6.880671684281883E-005 -2.914335439641036E-015 -5.040412531798211E-013
   240000.000000000  0.000000000000000  1.385326103455694E-004  0.000000000000000 -1.421085471520200E-012
   256000.000000000  0.000000000000000  5.860077927670893E-005  2.664535259100376E-014 -2.984279490192421E-012
   272000.000000000  0.000000000000000  1.207062559520449E-004  0.000000000000000 -2.913225216616411E-012
   288000.000000000  0.000000000000000  6.408745793773878E-005 -2.955968803064479E-014 -4.407585407761871E-013
   304000.000000000  0.000000000000000  1.461628015013584E-004  0.000000000000000 -7.438494264988549E-014
   320000.000000000  0.000000000000000  6.693399148199616E-005  1.110223024625157E-014 -5.329070518200751E-013
   336000.000000000  0.000000000000000  1.320581966440514E-004  0.000000000000000 -1.136868377216160E-012
   352000.000000000  0.000000000000000  6.001976711529111E-005  1.065814103640150E-013 -1.314504061156185E-012
   368000.000000000  0.000000000000000  1.385326012684777E-004  0.000000000000000 -2.120525977034049E-012
   384000.000000000  0.000000000000000  6.880671575673354E-005  6.522560269672795E-015 -8.049116928532385E-013
   400000.000000000  0.000000000000000  1.461628274013065E-004  0.000000000000000 -5.373479439185758E-013
   416000.000000000  0.000000000000000  6.880671575671983E-005 -7.719519468096792E-014 -1.449396158648142E-012
   432000.000000000  0.000000000000000  1.385326012684629E-004  0.000000000000000 -4.263256414560601E-013
   448000.000000000  0.000000000000000  6.001977097067924E-005  4.440892098500626E-015 -4.973799150320701E-013
   464000.000000000  0.000000000000000  1.320581966958147E-004  0.000000000000000 -7.815970093361102E-013
   480000.000000000  0.000000000000000  6.693397091192853E-005 -1.606353938754523E-014 -2.053912595556540E-014
   496000.000000000  0.000000000000000  1.461626368892584E-004  0.000000000000000  2.048361480433414E-012
   512000.000000000  0.000000000000000  6.408682525711273E-005  9.325873406851315E-014  6.075140390748857E-012
   528000.000000000  0.000000000000000  1.207062560143984E-004  0.000000000000000  5.115907697472721E-012
   544000.000000000  0.000000000000000  5.860078309127913E-005  7.993605777301127E-014  2.629008122312371E-012
   560000.000000000  0.000000000000000  1.385326105028396E-004  0.000000000000000 -3.663735981263017E-013
   576000.000000000  0.000000000000000  6.866890635437238E-005 -2.428612866367530E-016 -1.831867990631508E-014
   592000.000000000  0.000000000000000  1.483509361716286E-004  0.000000000000000 -5.551115123125783E-015
   608000.000000000  0.000000000000000  7.392345589082748E-005 -6.965998958219366E-017 -4.406197628981090E-015
   624000.000000000  0.000000000000000  1.589849237355895E-004  0.000000000000000  1.387778780781446E-016
   640000.000000000  0.000000000000000  7.514659046445759E-005  5.421010862427522E-019 -3.469446951953614E-017
   656000.000000000  0.000000000000000  1.589849158266311E-004  0.000000000000000 -2.775557561562891E-016
   672000.000000000  0.000000000000000  7.514658947582655E-005  0.000000000000000 -1.387778780781446E-016
   688000.000000000  0.000000000000000  1.589849158266311E-004  0.000000000000000 -2.775557561562891E-016
   704000.000000000  0.000000000000000  7.514658947582655E-005  0.000000000000000 -1.387778780781446E-016
   720000.000000000  0.000000000000000  1.589849158266311E-004  0.000000000000000 -2.775557561562891E-016
   736000.000000000  0.000000000000000  7.514658947582655E-005  0.000000000000000 -1.387778780781446E-016
   752000.000000000  0.000000000000000  1.589849158266311E-004  0.000000000000000 -2.775557561562891E-016
   768000.000000000  0.000000000000000  7.514658947582655E-005  0.000000000000000 -1.387778780781446E-016
   784000.000000000  0.000000000000000  1.589849158266311E-004  0.000000000000000 -2.775557561562891E-016
   800000.000000000  0.000000000000000  7.514658947582655E-005  0.000000000000000 -1.387778780781446E-016
   816000.000000000  0.000000000000000  1.589849158266311E-004  0.000000000000000 -2.775557561562891E-016
   832000.000000000  0.000000000000000  7.514658947582655E-005  0.000000000000000 -1.387778780781446E-016
   848000.000000000  0.000000000000000  1.589849158266311E-004  0.000000000000000 -2.775557561562891E-016
   864000.000000000  0.000000000000000  7.514658947582655E-005  0.000000000000000 -1.387778780781446E-016
   880000.000000000  0.000000000000000  1.589849158266311E-004  0.000000000000000 -2.775557561562891E-016
   896000.000000000  0.000000000000000  7.514658947582655E-005  0.000000000000000 -1.387778780781446E-016
   912000.000000000  0.000000000000000  1.589849158266311E-004  0.000000000000000 -2.775557561562891E-016
   928000.000000000  0.000000000000000  7.514658947582655E-005  0.000000000000000 -1.387778780781446E-016
   944000.000000000  0.000000000000000  1.589849158266311E-004  0.000000000000000 -2.775557561562891E-016
   960000.000000000  0.000000000000000  7.514658947582655E-005  0.000000000000000 -1.387778780781446E-016
   976000.000000000  0.000000000000000  1.589849158266311E-004  0.000000000000000 -2.775557561562891E-016
   992000.000000000  0.000000000000000  7.514658947582655E-005  0.000000000000000 -1.387778780781446E-016
   1008000.00000000  0.000000000000000  1.589849158266311E-004  0.000000000000000 -2.775557561562891E-016
   1024000.00000000  0.000000000000000  7.514658947582655E-005  0.000000000000000 -1.387778780781446E-016
   1040000.00000000  0.000000000000000  1.589849158266311E-004  0.000000000000000 -2.775557561562891E-016
   1056000.00000000  0.000000000000000  7.514658947582655E-005  0.000000000000000 -1.387778780781446E-016
   1072000.00000000  0.000000000000000  1.589849158266311E-004  0.000000000000000 -2.775557561562891E-016
   1088000.00000000  0.000000000000000  7.514658947582655E-005  0.000000000000000 -1.387778780781446E-016
   1104000.00000000  0.000000000000000  1.589849158266311E-004  0.000000000000000 -2.775557561562891E-016
   1120000.00000000  0.000000000000000  7.514658947582655E-005  0.000000000000000 -1.387778780781446E-016
   1136000.00000000  0.000000000000000  1.589849158266311E-004  0.000000000000000 -2.775557561562891E-016
   1152000.00000000  0.000000000000000  7.514658947582655E-005  0.000000000000000 -1.387778780781446E-016
   1168000.00000000  0.000000000000000  1.589849158266311E-004  0.000000000000000 -2.775557561562891E-016
   1184000.00000000  0.000000000000000  7.514658947582655E-005  0.000000000000000 -1.387778780781446E-016
   1200000.00000000  0.000000000000000  1.589849158266311E-004  0.000000000000000 -2.775557561562891E-016
   1216000.00000000  0.000000000000000  7.514658947582655E-005  0.000000000000000 -1.387778780781446E-016
   1232000.00000000  0.000000000000000  1.589849158266311E-004  0.000000000000000 -2.775557561562891E-016
   1248000.00000000  0.000000000000000  7.514658947582655E-005  0.000000000000000 -1.387778780781446E-016
   1264000.00000000  0.000000000000000  1.589849158266311E-004  0.000000000000000 -2.775557561562891E-016
   1280000.00000000  0.000000000000000  7.514658947582655E-005  0.000000000000000 -1.387778780781446E-016
   1296000.00000000  0.000000000000000  1.589849158266311E-004  0.000000000000000 -2.775557561562891E-016
   1312000.00000000  0.000000000000000  7.514658947582655E-005  0.000000000000000 -1.387778780781446E-016
   1328000.00000000  0.000000000000000  1.589849158266311E-004  0.000000000000000 -2.775557561562891E-016
   1344000.00000000  0.000000000000000  7.514658947582655E-005  0.000000000000000 -1.387778780781446E-016
   1360000.00000000  0.000000000000000  1.589849158266311E-004  0.000000000000000 -2.775557561562891E-016
   1376000.00000000  0.000000000000000  7.514658947582655E-005  0.000000000000000 -1.387778780781446E-016
   1392000.00000000  0.000000000000000  1.589849158266311E-004  0.000000000000000 -2.775557561562891E-016
   1408000.00000000  0.000000000000000  7.514658947582655E-005  0.000000000000000 -1.387778780781446E-016
   1424000.00000000  0.000000000000000  1.589849158266311E-004  0.000000000000000 -2.775557561562891E-016
   1440000.00000000  0.000000000000000  7.514658947582655E-005  0.000000000000000 -1.387778780781446E-016
   1456000.00000000  0.000000000000000  1.589849158266311E-004  0.000000000000000 -2.775557561562891E-016
   1472000.00000000  0.000000000000000  7.514658947582655E-005  0.000000000000000 -1.387778780781446E-016
   1488000.00000000  0.000000000000000  1.589849158266311E-004  0.000000000000000 -2.775557561562891E-016
   1504000.00000000  0.000000000000000  7.514658947582655E-005  0.000000000000000 -1.387778780781446E-016
   1520000.00000000  0.000000000000000  1.589849158266311E-004  0.000000000000000 -2.775557561562891E-016
   1536000.00000000  0.000000000000000  7.514658947582655E-005  0.000000000000000 -1.387778780781446E-016
   1552000.00000000  0.000000000000000  1.589849158266311E-004  0.000000000000000 -2.775557561562891E-016
   1568000.00000000  0.000000000000000  7.514658947582655E-005  0.000000000000000 -1.387778780781446E-016
   1584000.00000000  0.000000000000000  1.589849158266311E-004  0.000000000000000 -2.775557561562891E-016
   1600000.00000000  0.000000000000000  1.502931789516530E-004 -5.421010862427522E-019 -1.387778780781446E-016
 zone f="point",i=  101
   0.000000000000000  0.000000000000000  1.300369082735616E-004  8.373616671130931E-007 -4.166350135451774E-005
   16000.0000000000  0.000000000000000  1.394298313800355E-004  5.488815644068236E-007  7.325175882533230E-010
   32000.0000000000  0.000000000000000  6.501874953869140E-005  1.144559029801415E-012  1.831327971213437E-010
   48000.0000000000  0.000000000000000  1.394299277147750E-004  0.000000000000000 -2.775557561562891E-016
   64000.0000000000  0.000000000000000  6.501876158094304E-005  0.000000000000000 -1.387778780781446E-016
   80000.0000000000  0.000000000000000  1.394299277147750E-004  0.000000000000000 -2.775557561562891E-016
   96000.0000000000  0.000000000000000  6.501876158094304E-005  0.000000000000000 -1.387778780781446E-016
   112000.000000000  0.000000000000000  1.394299277147750E-004  0.000000000000000 -2.775557561562891E-016
   128000.000000000  0.000000000000000  6.501876158096414E-005  0.000000000000000 -1.387778780781446E-016
   144000.000000000  0.000000000000000  1.394299277149439E-004  0.000000000000000 -2.775557561562891E-016
   160000.000000000  0.000000000000000  6.528920157386357E-005 -1.490777987167569E-018  1.214306433183765E-016
   176000.000000000  0.000000000000000  1.387662364550173E-004  0.000000000000000  1.424901863167349E-013
   192000.000000000  0.000000000000000  6.250178418363050E-005 -2.428612866367530E-016 -3.053113317719180E-014
   208000.000000000  0.000000000000000  1.318556972644273E-004  0.000000000000000  1.554312234475219E-014
   224000.000000000  0.000000000000000  6.033750196056323E-005 -3.781697177629439E-015 -5.179190409876355E-013
   240000.000000000  0.000000000000000  1.207684247497735E-004  0.000000000000000 -1.421085471520200E-012
   256000.000000000  0.000000000000000  4.961301024434613E-005  2.664535259100376E-014 -2.984279490192421E-012
   272000.000000000  0.000000000000000  9.894344868029886E-005  0.000000000000000 -2.913225216616411E-012
   288000.000000000  0.000000000000000  5.497340324899645E-005 -3.618633170887620E-014 -3.291811268013589E-013
   304000.000000000  0.000000000000000  1.318556395519696E-004  0.000000000000000  1.110223024625157E-015
   320000.000000000  0.000000000000000  5.820817166158864E-005  1.998401444325282E-014 -3.907985046680551E-013
   336000.000000000  0.000000000000000  1.126529995256249E-004  0.000000000000000 -1.136868377216160E-012
   352000.000000000  0.000000000000000  5.132669840332606E-005  1.598721155460225E-013 -1.740829702612245E-012
   368000.000000000  0.000000000000000  1.207681573581848E-004  0.000000000000000 -2.999822612537173E-012
   384000.000000000  0.000000000000000  6.033746094972336E-005  1.249000902703301E-014 -1.207922650792170E-012
   400000.000000000  0.000000000000000  1.318557029557066E-004  0.000000000000000 -9.725553695716371E-013
   416000.000000000  0.000000000000000  6.033746094966335E-005 -1.184469189396964E-013 -2.285949207703197E-012
   432000.000000000  0.000000000000000  1.207681573579112E-004  0.000000000000000 -7.815970093361102E-013
   448000.000000000  0.000000000000000  5.132685483697739E-005  0.000000000000000 -7.105427357601002E-013
   464000.000000000  0.000000000000000  1.126530033545472E-004  0.000000000000000 -7.815970093361102E-013
   480000.000000000  0.000000000000000  5.820788095069549E-005 -1.613292832658431E-014 -1.942890293094024E-014
   496000.000000000  0.000000000000000  1.318533100424450E-004  0.000000000000000  2.121636200058674E-012
   512000.000000000  0.000000000000000  5.496679628126816E-005  9.992007221626409E-014  6.323830348264892E-012
   528000.000000000  0.000000000000000  9.894344886584760E-005  0.000000000000000  5.115907697472721E-012
   544000.000000000  0.000000000000000  4.961316115046710E-005  7.993605777301127E-014  2.629008122312371E-012
   560000.000000000  0.000000000000000  1.207684315110622E-004  0.000000000000000 -3.663735981263017E-013
   576000.000000000  0.000000000000000  6.012906156773449E-005 -2.428612866367530E-016 -2.053912595556540E-014
   592000.000000000  0.000000000000000  1.331413726291344E-004  0.000000000000000 -5.551115123125783E-015
   608000.000000000  0.000000000000000  6.441134558057136E-005 -6.965998958219366E-017 -4.406197628981090E-015
   624000.000000000  0.000000000000000  1.394299455147060E-004  0.000000000000000  1.387778780781446E-016
   640000.000000000  0.000000000000000  6.501876380598240E-005  5.421010862427522E-019 -3.469446951953614E-017
   656000.000000000  0.000000000000000  1.394299277147750E-004  0.000000000000000 -2.775557561562891E-016
   672000.000000000  0.000000000000000  6.501876158094304E-005  0.000000000000000 -1.387778780781446E-016
   688000.000000000  0.000000000000000  1.394299277147750E-004  0.000000000000000 -2.775557561562891E-016
   704000.000000000  0.000000000000000  6.501876158094304E-005  0.000000000000000 -1.387778780781446E-016
   720000.000000000  0.000000000000000  1.394299277147750E-004  0.000000000000000 -2.775557561562891E-016
   736000.000000000  0.000000000000000  6.501876158094304E-005  0.000000000000000 -1.387778780781446E-016
   752000.000000000  0.000000000000000  1.394299277147750E-004  0.000000000000000 -2.775557561562891E-016
   768000.000000000  0.000000000000000  6.501876158094304E-005  0.000000000000000 -1.387778780781446E-016
   784000.000000000  0.000000000000000  1.394299277147750E-004  0.000000000000000 -2.775557561562891E-016
   800000.000000000  0.000000000000000  6.501876158094304E-005  0.000000000000000 -1.387778780781446E-016
   816000.000000000  0.000000000000000  1.394299277147750E-004  0.000000000000000 -2.775557561562891E-016
   832000.000000000  0.000000000000000  6.501876158094304E-005  0.000000000000000 -1.387778780781446E-016
   848000.000000000  0.000000000000000  1.394299277147750E-004  0.000000000000000 -2.775557561562891E-016
   864000.000000000  0.000000000000000  6.501876158094304E-005  0.000000000000000 -1.387778780781446E-016
   880000.000000000  0.000000000000000  1.394299277147750E-004  0.000000000000000 -2.775557561562891E-016
   896000.000000000  0.000000000000000  6.501876158094304E-005  0.000000000000000 -1.387778780781446E-016
   912000.000000000  0.000000000000000  1.394299277147750E-004  0.000000000000000 -2.775557561562891E-016
   928000.000000000  0.000000000000000  6.501876158094304E-005  0.000000000000000 -1.387778780781446E-016
   944000.000000000  0.000000000000000  1.394299277147750E-004  0.000000000000000 -2.775557561562891E-016
   960000.000000000  0.000000000000000  6.501876158094304E-005  0.000000000000000 -1.387778780781446E-016
   976000.000000000  0.000000000000000  1.394299277147750E-004  0.000000000000000 -2.775557561562891E-016
   992000.000000000  0.000000000000000  6.501876158094304E-005  0.000000000000000 -1.387778780781446E-016
   1008000.00000000  0.000000000000000  1.394299277147750E-004  0.000000000000000 -2.775557561562891E-016
   1024000.00000000  0.000000000000000  6.501876158094304E-005  0.000000000000000 -1.387778780781446E-016
   1040000.00000000  0.000000000000000  1.394299277147750E-004  0.000000000000000 -2.775557561562891E-016
   1056000.00000000  0.000000000000000  6.501876158094304E-005  0.000000000000000 -1.387778780781446E-016
   1072000.00000000  0.000000000000000  1.394299277147750E-004  0.000000000000000 -2.775557561562891E-016
   1088000.00000000  0.000000000000000  6.501876158094304E-005  0.000000000000000 -1.387778780781446E-016
   1104000.00000000  0.000000000000000  1.394299277147750E-004  0.000000000000000 -2.775557561562891E-016
   1120000.00000000  0.000000000000000  6.501876158094304E-005  0.000000000000000 -1.387778780781446E-016
   1136000.00000000  0.000000000000000  1.394299277147750E-004  0.000000000000000 -2.775557561562891E-016
   1152000.00000000  0.000000000000000  6.501876158094304E-005  0.000000000000000 -1.387778780781446E-016
   1168000.00000000  0.000000000000000  1.394299277147750E-004  0.000000000000000 -2.775557561562891E-016
   1184000.00000000  0.000000000000000  6.501876158094304E-005  0.000000000000000 -1.387778780781446E-016
   1200000.00000000  0.000000000000000  1.394299277147750E-004  0.000000000000000 -2.775557561562891E-016
   1216000.00000000  0.000000000000000  6.501876158094304E-005  0.000000000000000 -1.387778780781446E-016
   1232000.00000000  0.000000000000000  1.394299277147750E-004  0.000000000000000 -2.775557561562891E-016
   1248000.00000000  0.000000000000000  6.501876158094304E-005  0.000000000000000 -1.387778780781446E-016
   1264000.00000000  0.000000000000000  1.394299277147750E-004  0.000000000000000 -2.775557561562891E-016
   1280000.00000000  0.000000000000000  6.501876158094304E-005  0.000000000000000 -1.387778780781446E-016
   1296000.00000000  0.000000000000000  1.394299277147750E-004  0.000000000000000 -2.775557561562891E-016
   1312000.00000000  0.000000000000000  6.501876158094304E-005  0.000000000000000 -1.387778780781446E-016
   1328000.00000000  0.000000000000000  1.394299277147750E-004  0.000000000000000 -2.775557561562891E-016
   1344000.00000000  0.000000000000000  6.501876158094304E-005  0.000000000000000 -1.387778780781446E-016
   1360000.00000000  0.000000000000000  1.394299277147750E-004  0.000000000000000 -2.775557561562891E-016
   1376000.00000000  0.000000000000000  6.501876158094304E-005  0.000000000000000 -1.387778780781446E-016
   1392000.00000000  0.000000000000000  1.394299277147750E-004  0.000000000000000 -2.775557561562891E-016
   1408000.00000000  0.000000000000000  6.501876158094304E-005  0.000000000000000 -1.387778780781446E-016
   1424000.00000000  0.000000000000000  1.394299277147750E-004  0.000000000000000 -2.775557561562891E-016
   1440000.00000000  0.000000000000000  6.501876158094304E-005  0.000000000000000 -1.387778780781446E-016
   1456000.00000000  0.000000000000000  1.394299277147750E-004  0.000000000000000 -2.775557561562891E-016
   1472000.00000000  0.000000000000000  6.501876158094304E-005  0.000000000000000 -1.387778780781446E-016
   1488000.00000000  0.000000000000000  1.394299277147750E-004  0.000000000000000 -2.775557561562891E-016
   1504000.00000000  0.000000000000000  6.501876158094304E-005  0.000000000000000 -1.387778780781446E-016
   1520000.00000000  0.000000000000000  1.394299277147750E-004  0.000000000000000 -2.775557561562891E-016
   1536000.00000000  0.000000000000000  6.501876158094304E-005  0.000000000000000 -1.387778780781446E-016
   1552000.00000000  0.000000000000000  1.394299277147750E-004  0.000000000000000 -2.775557561562891E-016
   1568000.00000000  0.000000000000000  6.501876158094304E-005  0.000000000000000 -1.387778780781446E-016
   1584000.00000000  0.000000000000000  1.394299277147750E-004  0.000000000000000 -2.775557561562891E-016
   1600000.00000000  0.000000000000000  1.300375231618861E-004 -5.421010862427522E-019 -1.387778780781446E-016
 zone f="point",i=  101
   0.000000000000000  0.000000000000000  1.174206258223733E-004  5.695689370228333E-007 -1.060964975013040E-004
   16000.0000000000  0.000000000000000  1.254216498788739E-004  8.233223466105065E-007 -9.880248416728465E-005
   32000.0000000000  0.000000000000000  5.871081722899318E-005  3.613652049178127E-007 -2.470039566365017E-005
   48000.0000000000  0.000000000000000  1.254223032934128E-004  0.000000000000000  6.245004513516506E-016
   64000.0000000000  0.000000000000000  5.871089837065644E-005  1.490777987167569E-018  8.673617379884035E-017
   80000.0000000000  0.000000000000000  1.254223032932847E-004  0.000000000000000 -2.775557561562891E-016
   96000.0000000000  0.000000000000000  5.871089837064044E-005  0.000000000000000 -1.387778780781446E-016
   112000.000000000  0.000000000000000  1.254223032932847E-004  0.000000000000000 -2.775557561562891E-016
   128000.000000000  0.000000000000000  5.871089837069113E-005  0.000000000000000 -1.387778780781446E-016
   144000.000000000  0.000000000000000  1.254223032936903E-004  0.000000000000000 -2.775557561562891E-016
   160000.000000000  0.000000000000000  5.900888717892586E-005 -1.490777987167569E-018  1.214306433183765E-016
   176000.000000000  0.000000000000000  1.252542578313967E-004  0.000000000000000  1.424901863167349E-013
   192000.000000000  0.000000000000000  5.676152175408952E-005 -3.469446951953614E-016 -2.886579864025407E-014
   208000.000000000  0.000000000000000  1.207868042957274E-004  0.000000000000000  2.220446049250313E-014
   224000.000000000  0.000000000000000  5.472931493731402E-005 -3.677613769070831E-015 -5.162537064506978E-013
   240000.000000000  0.000000000000000  1.082626992919643E-004  0.000000000000000 -1.421085471520200E-012
   256000.000000000  0.000000000000000  4.449966702916051E-005  2.664535259100376E-014 -2.984279490192421E-012
   272000.000000000  0.000000000000000  8.665695453612670E-005  0.000000000000000 -2.913225216616411E-012
   288000.000000000  0.000000000000000  4.963188108710352E-005 -3.840677775812651E-014 -2.925437669887287E-013
   304000.000000000  0.000000000000000  1.207867147533698E-004  0.000000000000000  1.088018564132653E-013
   320000.000000000  0.000000000000000  5.279234935092144E-005  1.998401444325282E-014 -2.664535259100376E-013
   336000.000000000  0.000000000000000  1.002519633313511E-004  0.000000000000000 -8.526512829121202E-013
   352000.000000000  0.000000000000000  4.619879490973924E-005  1.842970220877760E-013 -1.847411112976260E-012
   368000.000000000  0.000000000000000  1.082608738749360E-004  0.000000000000000 -3.365085987638849E-012
   384000.000000000  0.000000000000000  5.472902064555121E-005  1.599415044850616E-014 -1.406097460687761E-012
   400000.000000000  0.000000000000000  1.207868135314673E-004  0.000000000000000 -1.216804434989172E-012
   416000.000000000  0.000000000000000  5.472902064769517E-005 -1.362451818032184E-013 -2.656208586415687E-012
   432000.000000000  0.000000000000000  1.082608738923761E-004  0.000000000000000 -1.136868377216160E-012
   448000.000000000  0.000000000000000  4.619996369802239E-005 -8.881784197001252E-015 -8.526512829121202E-013
   464000.000000000  0.000000000000000  1.002520116432985E-004  0.000000000000000 -7.815970093361102E-013
   480000.000000000  0.000000000000000  5.279105729268895E-005 -1.613292832658431E-014 -1.942890293094024E-014
   496000.000000000  0.000000000000000  1.207763300771821E-004  0.000000000000000  2.121636200058674E-012
   512000.000000000  0.000000000000000  4.960894504208989E-005  9.992007221626409E-014  6.323830348264892E-012
   528000.000000000  0.000000000000000  8.665695390986672E-005  0.000000000000000  5.115907697472721E-012
   544000.000000000  0.000000000000000  4.450075825073162E-005  8.215650382226158E-014  2.593480985524366E-012
   560000.000000000  0.000000000000000  1.082627644989581E-004  0.000000000000000 -4.385380947269368E-013
   576000.000000000  0.000000000000000  5.448647328455785E-005 -2.775557561562891E-016 -2.109423746787797E-014
   592000.000000000  0.000000000000000  1.215396625254071E-004  0.000000000000000 -5.551115123125783E-015
   608000.000000000  0.000000000000000  5.839136081967421E-005 -6.965998958219366E-017 -4.406197628981090E-015
   624000.000000000  0.000000000000000  1.254223295745590E-004  0.000000000000000  1.387778780781446E-016
   640000.000000000  0.000000000000000  5.871090165590251E-005  5.421010862427522E-019 -3.469446951953614E-017
   656000.000000000  0.000000000000000  1.254223032932848E-004  0.000000000000000 -2.775557561562891E-016
   672000.000000000  0.000000000000000  5.871089837064047E-005  0.000000000000000 -1.387778780781446E-016
   688000.000000000  0.000000000000000  1.254223032932847E-004  0.000000000000000 -2.775557561562891E-016
   704000.000000000  0.000000000000000  5.871089837064044E-005  0.000000000000000 -1.387778780781446E-016
   720000.000000000  0.000000000000000  1.254223032932847E-004  0.000000000000000 -2.775557561562891E-016
   736000.000000000  0.000000000000000  5.871089837064044E-005  0.000000000000000 -1.387778780781446E-016
   752000.000000000  0.000000000000000  1.254223032932847E-004  0.000000000000000 -2.775557561562891E-016
   768000.000000000  0.000000000000000  5.871089837064044E-005  0.000000000000000 -1.387778780781446E-016
   784000.000000000  0.000000000000000  1.254223032932847E-004  0.000000000000000 -2.775557561562891E-016
   800000.000000000  0.000000000000000  5.871089837064044E-005  0.000000000000000 -1.387778780781446E-016
   816000.000000000  0.000000000000000  1.254223032932847E-004  0.000000000000000 -2.775557561562891E-016
   832000.000000000  0.000000000000000  5.871089837064044E-005  0.000000000000000 -1.387778780781446E-016
   848000.000000000  0.000000000000000  1.254223032932847E-004  0.000000000000000 -2.775557561562891E-016
   864000.000000000  0.000000000000000  5.871089837064044E-005  0.000000000000000 -1.387778780781446E-016
   880000.000000000  0.000000000000000  1.254223032932847E-004  0.000000000000000 -2.775557561562891E-016
   896000.000000000  0.000000000000000  5.871089837064044E-005  0.000000000000000 -1.387778780781446E-016
   912000.000000000  0.000000000000000  1.254223032932847E-004  0.000000000000000 -2.775557561562891E-016
   928000.000000000  0.000000000000000  5.871089837064044E-005  0.000000000000000 -1.387778780781446E-016
   944000.000000000  0.000000000000000  1.254223032932847E-004  0.000000000000000 -2.775557561562891E-016
   960000.000000000  0.000000000000000  5.871089837064044E-005  0.000000000000000 -1.387778780781446E-016
   976000.000000000  0.000000000000000  1.254223032932847E-004  0.000000000000000 -2.775557561562891E-016
   992000.000000000  0.000000000000000  5.871089837064044E-005  0.000000000000000 -1.387778780781446E-016
   1008000.00000000  0.000000000000000  1.254223032932847E-004  0.000000000000000 -2.775557561562891E-016
   1024000.00000000  0.000000000000000  5.871089837064044E-005  0.000000000000000 -1.387778780781446E-016
   1040000.00000000  0.000000000000000  1.254223032932847E-004  0.000000000000000 -2.775557561562891E-016
   1056000.00000000  0.000000000000000  5.871089837064044E-005  0.000000000000000 -1.387778780781446E-016
   1072000.00000000  0.000000000000000  1.254223032932847E-004  0.000000000000000 -2.775557561562891E-016
   1088000.00000000  0.000000000000000  5.871089837064044E-005  0.000000000000000 -1.387778780781446E-016
   1104000.00000000  0.000000000000000  1.254223032932847E-004  0.000000000000000 -2.775557561562891E-016
   1120000.00000000  0.000000000000000  5.871089837064044E-005  0.000000000000000 -1.387778780781446E-016
   1136000.00000000  0.000000000000000  1.254223032932847E-004  0.000000000000000 -2.775557561562891E-016
   1152000.00000000  0.000000000000000  5.871089837064044E-005  0.000000000000000 -1.387778780781446E-016
   1168000.00000000  0.000000000000000  1.254223032932847E-004  0.000000000000000 -2.775557561562891E-016
   1184000.00000000  0.000000000000000  5.871089837064044E-005  0.000000000000000 -1.387778780781446E-016
   1200000.00000000  0.000000000000000  1.254223032932847E-004  0.000000000000000 -2.775557561562891E-016