variables = "time","head","temp",                            "conc","vx","vz","sig_kk","kx"
zone
  1.00000000E+01   -4.80213203E-10    2.24815706E+01    3.00000000E-03    0.00000000E+00    0.00000000E+00   -9.09099740E+00    3.09000000E+00
  2.00000000E+01   -5.52972779E-10    2.24815703E+01    3.00000000E-03    4.59632332E-13   -6.21724894E-13   -3.94063291E+01    3.09000000E+00
  3.00000000E+01   -5.82076609E-10    2.24815688E+01    3.00000000E-03    5.32907052E-13   -9.50350909E-13   -3.94063291E+01    3.09000000E+00
  4.00000000E+01   -5.96628524E-10    2.24815645E+01    3.00000000E-03    5.36237721E-13   -1.02140518E-12   -3.94063291E+01    3.09000000E+00
  5.00000000E+01   -5.96628524E-10    2.24815551E+01    3.00000000E-03    5.65103520E-13   -9.68114477E-13   -3.94063291E+01    3.09000000E+00
  6.00000000E+01   -5.96628524E-10    2.24815375E+01    3.00000000E-03    5.65103520E-13   -9.68114477E-13   -3.94063291E+01    3.09000000E+00
  7.00000000E+01   -5.96628524E-10    2.24815079E+01    3.00000000E-03    5.65103520E-13   -9.68114477E-13   -3.94063291E+01    3.09000000E+00
  8.00000000E+01   -5.96628524E-10    2.24814615E+01    3.00000000E-03    5.65103520E-13   -9.68114477E-13   -3.94063291E+01    3.09000000E+00
  9.00000000E+01   -5.96628524E-10    2.24813933E+01    3.00000000E-03    5.65103520E-13   -9.68114477E-13   -3.94063291E+01    3.09000000E+00
  1.00000000E+02   -5.96628524E-10    2.24812973E+01    3.00000000E-03    5.65103520E-13   -9.68114477E-13   -3.94063291E+01    3.09000000E+00
  1.10000000E+02   -5.96628524E-10    2.24811671E+01    3.00000000E-03    5.65103520E-13   -9.68114477E-13   -3.94063291E+01    3.09000000E+00
  1.20000000E+02   -5.96628524E-10    2.24809961E+01    3.00000000E-03    5.65103520E-13   -9.68114477E-13   -6.80948941E+01    3.09000000E+00
  1.30000000E+02   -5.96628524E-10    2.24807769E+01    3.00000000E-03    5.65103520E-13   -9.68114477E-13   -6.80948941E+01    3.09000000E+00
  1.40000000E+02   -5.96628524E-10    2.24805024E+01    3.00000000E-03    5.65103520E-13   -9.68114477E-13   -6.80948941E+01    3.09000000E+00
  1.50000000E+02   -5.96628524E-10    2.24801649E+01    3.00000000E-03    5.65103520E-13   -9.68114477E-13   -6.80948941E+01    3.09000000E+00
  1.60000000E+02   -5.96628524E-10    2.24797567E+01    3.00000000E-03    5.65103520E-13   -9.68114477E-13   -6.80948941E+01    3.09000000E+00
  1.70000000E+02   -5.96628524E-10    2.24792703E+01    3.00000000E-03    5.65103520E-13   -9.68114477E-13   -6.80948941E+01    3.09000000E+00
  1.80000000E+02   -5.96628524E-10    2.24786979E+01    3.00000000E-03    5.65103520E-13   -9.68114477E-13   -6.80948941E+01    3.09000000E+00
  1.90000000E+02   -5.96628524E-10    2.24780320E+01    3.00000000E-03    5.65103520E-13   -9.68114477E-13   -6.80948941E+01    3.09000000E+00
  2.00000000E+02   -5.96628524E-10    2.24772653E+01    3.00000000E-03    5.65103520E-13   -9.68114477E-13   -6.80948941E+01    3.09000000E+00
  2.10000000E+02   -5.96628524E-10    2.24763905E+01    3.00000000E-03    5.65103520E-13   -9.68114477E-13   -6.80948941E+01    3.09000000E+00
  2.20000000E+02   -5.96628524E-10    2.24754007E+01    3.00000000E-03    5.65103520E-13   -9.68114477E-13   -1.07642244E+02    3.09000000E+00
  2.30000000E+02   -5.96628524E-10    2.24742892E+01    3.00000000E-03    5.65103520E-13   -9.68114477E-13   -1.07642244E+02    3.09000000E+00
  2.40000000E+02   -5.96628524E-10    2.24730496E+01    3.00000000E-03    5.65103520E-13   -9.68114477E-13   -1.07642244E+02    3.09000000E+00
  2.50000000E+02   -5.96628524E-10    2.24716759E+01    3.00000000E-03    5.65103520E-13   -9.68114477E-13   -1.07642244E+02    3.09000000E+00
  2.60000000E+02   -5.96628524E-10    2.24701622E+01    3.00000000E-03    5.65103520E-13   -9.68114477E-13   -1.07642244E+02    3.09000000E+00
  2.70000000E+02   -5.96628524E-10    2.24685032E+01    3.00000000E-03    5.65103520E-13   -9.68114477E-13   -1.07642244E+02    3.09000000E+00
  2.80000000E+02   -5.96628524E-10    2.24666940E+01    3.00000000E-03    5.65103520E-13   -9.68114477E-13   -1.07642244E+02    3.09000000E+00
  2.90000000E+02   -5.96628524E-10    2.24647297E+01    3.00000000E-03    5.65103520E-13   -9.68114477E-13   -1.07642244E+02    3.09000000E+00
  3.00000000E+02   -5.96628524E-10    2.24626063E+01    3.00000000E-03    5.65103520E-13   -9.68114477E-13   -1.07642244E+02    3.09000000E+00
  3.10000000E+02   -5.96628524E-10    2.24603198E+01    3.00000000E-03    5.65103520E-13   -9.68114477E-13   -1.07642244E+02    3.09000000E+00
  3.20000000E+02   -5.96628524E-10    2.24578666E+01    3.00000000E-03    5.65103520E-13   -9.68114477E-13   -1.60912962E+02    3.09000000E+00
  3.30000000E+02   -5.96628524E-10    2.24552437E+01    3.00000000E-03    5.65103520E-13   -9.68114477E-13   -1.60912962E+02    3.09000000E+00
  3.40000000E+02   -5.96628524E-10    2.24524482E+01    3.00000000E-03    5.65103520E-13   -9.68114477E-13   -1.60912962E+02    3.09000000E+00
  3.50000000E+02   -5.96628524E-10    2.24494778E+01    3.00000000E-03    5.65103520E-13   -9.68114477E-13   -1.60912962E+02    3.09000000E+00
  3.60000000E+02   -5.96628524E-10    2.24463303E+01    3.00000000E-03    5.65103520E-13   -9.68114477E-13   -1.60912962E+02    3.09000000E+00
  3.70000000E+02   -5.96628524E-10    2.24430039E+01    3.00000000E-03    5.65103520E-13   -9.68114477E-13   -1.60912962E+02    3.09000000E+00
  3.80000000E+02   -5.96628524E-10    2.24394974E+01    3.00000000E-03    5.65103520E-13   -9.68114477E-13   -1.60912962E+02    3.09000000E+00
  3.90000000E+02   -5.96628524E-10    2.24358096E+01    3.00000000E-03    5.65103520E-13   -9.68114477E-13   -1.60912962E+02    3.09000000E+00
  4.00000000E+02   -5.96628524E-10    2.24319397E+01    3.00000000E-03    5.65103520E-13   -9.68114477E-13   -1.60912962E+02    3.09000000E+00
  4.10000000E+02   -5.96628524E-10    2.24278872E+01    3.00000000E-03    5.65103520E-13   -9.68114477E-13   -1.60912962E+02    3.09000000E+00
  4.20000000E+02   -5.96628524E-10    2.24236518E+01    3.00000000E-03    5.65103520E-13   -9.68114477E-13   -2.00650480E+02    3.09000000E+00
  4.30000000E+02   -5.96628524E-10    2.24192337E+01    3.00000000E-03    5.65103520E-13   -9.68114477E-13   -2.00650480E+02    3.09000000E+00
  4.40000000E+02   -5.96628524E-10    2.24146331E+01    3.00000000E-03    5.65103520E-13   -9.68114477E-13   -2.00650480E+02    3.09000000E+00
  4.50000000E+02   -5.96628524E-10    2.24098506E+01    3.00000000E-03    5.65103520E-13   -9.68114477E-13   -2.00650480E+02    3.09000000E+00
  4.60000000E+02   -5.96628524E-10    2.24048869E+01    3.00000000E-03    5.65103520E-13   -9.68114477E-13   -2.00650480E+02    3.09000000E+00
  4.70000000E+02   -5.96628524E-10    2.23997429E+01    3.00000000E-03    5.65103520E-13   -9.68114477E-13   -2.00650480E+02    3.09000000E+00
  4.80000000E+02   -5.96628524E-10    2.23944199E+01    3.00000000E-03    5.65103520E-13   -9.68114477E-13   -2.00650480E+02    3.09000000E+00
  4.90000000E+02   -5.96628524E-10    2.23889192E+01    3.00000000E-03    5.65103520E-13   -9.68114477E-13   -2.00650480E+02    3.09000000E+00
  5.00000000E+02   -5.96628524E-10    2.23832423E+01    3.00000000E-03    5.65103520E-13   -9.68114477E-13   -2.00650480E+02    3.09000000E+00
  5.10000000E+02   -5.96628524E-10    2.23773909E+01    3.00000000E-03    5.65103520E-13   -9.68114477E-13   -2.00650480E+02    3.09000000E+00
  5.20000000E+02   -5.96628524E-10    2.23713669E+01    3.00000000E-03    5.65103520E-13   -9.68114477E-13   -2.37043492E+02    3.09000000E+00
  5.30000000E+02   -5.96628524E-10    2.23651722E+01    3.00000000E-03    5.65103520E-13   -9.68114477E-13   -2.37043492E+02    3.09000000E+00
  5.40000000E+02   -5.96628524E-10    2.23588090E+01    3.00000000E-03    5.65103520E-13   -9.68114477E-13   -2.37043492E+02    3.09000000E+00
  5.50000000E+02   -5.96628524E-10    2.23522795E+01    3.00000000E-03    5.65103520E-13   -9.68114477E-13   -2.37043492E+02    3.09000000E+00
  5.60000000E+02   -5.96628524E-10    2.23455860E+01    3.00000000E-03    5.65103520E-13   -9.68114477E-13   -2.37043492E+02    3.09000000E+00
  5.70000000E+02   -5.96628524E-10    2.23387309E+01    3.00000000E-03    5.65103520E-13   -9.68114477E-13   -2.37043492E+02    3.09000000E+00
  5.80000000E+02   -5.96628524E-10    2.23317167E+01    3.00000000E-03    5.65103520E-13   -9.68114477E-13   -2.37043492E+02    3.09000000E+00
  5.90000000E+02   -5.96628524E-10    2.23245462E+01    3.00000000E-03    5.65103520E-13   -9.68114477E-13   -2.37043492E+02    3.09000000E+00
  6.00000000E+02   -5.96628524E-10    2.23172218E+01    3.00000000E-03    5.65103520E-13   -9.68114477E-13   -2.37043492E+02    3.09000000E+00
  6.10000000E+02   -5.96628524E-10    2.23097464E+01    3.00000000E-03    5.65103520E-13   -9.68114477E-13   -2.37043492E+02    3.09000000E+00
  6.20000000E+02   -5.96628524E-10    2.23021228E+01    3.00000000E-03    5.65103520E-13   -9.68114477E-13   -2.97395724E+02    3.09000000E+00
  6.30000000E+02   -5.96628524E-10    2.22943538E+01    3.00000000E-03    5.65103520E-13   -9.68114477E-13   -2.97395724E+02    3.09000000E+00
  6.40000000E+02   -5.96628524E-10    2.22864423E+01    3.00000000E-03    5.65103520E-13   -9.68114477E-13   -2.97395724E+02    3.09000000E+00
  6.50000000E+02   -5.96628524E-10    2.22783912E+01    3.00000000E-03    5.65103520E-13   -9.68114477E-13   -2.97395724E+02    3.09000000E+00
  6.60000000E+02   -5.96628524E-10    2.22702034E+01    3.00000000E-03    5.65103520E-13   -9.68114477E-13   -2.97395724E+02    3.09000000E+00
  6.70000000E+02   -5.96628524E-10    2.22618819E+01    3.00000000E-03    5.65103520E-13   -9.68114477E-13   -2.97395724E+02    3.09000000E+00
  6.80000000E+02   -5.96628524E-10    2.22534298E+01    3.00000000E-03    5.65103520E-13   -9.68114477E-13   -2.97395724E+02    3.09000000E+00
  6.90000000E+02   -5.96628524E-10    2.22448499E+01    3.00000000E-03    5.65103520E-13   -9.68114477E-13   -2.97395724E+02    3.09000000E+00
  7.00000000E+02   -5.96628524E-10    2.22361453E+01    3.00000000E-03    5.65103520E-13   -9.68114477E-13   -2.97395724E+02    3.09000000E+00
  7.10000000E+02   -5.96628524E-10    2.22273191E+01    3.00000000E-03    5.65103520E-13   -9.68114477E-13   -2.97395724E+02    3.09000000E+00
  7.20000000E+02   -5.96628524E-10    2.22183742E+01    3.00000000E-03    5.65103520E-13   -9.68114477E-13   -3.37714584E+02    3.09000000E+00
  7.30000000E+02   -5.96628524E-10    2.22093137E+01    3.00000000E-03    5.65103520E-13   -9.68114477E-13   -3.37714584E+02    3.09000000E+00
  7.40000000E+02   -5.96628524E-10    2.22001404E+01    3.00000000E-03    5.65103520E-13   -9.68114477E-13   -3.37714584E+02    3.09000000E+00
  7.50000000E+02   -5.96628524E-10    2.21908576E+01    3.00000000E-03    5.65103520E-13   -9.68114477E-13   -3.37714584E+02    3.09000000E+00
  7.60000000E+02   -5.96628524E-10    2.21814680E+01    3.00000000E-03    5.65103520E-13   -9.68114477E-13   -3.37714584E+02    3.09000000E+00
  7.70000000E+02   -5.96628524E-10    2.21719746E+01    3.00000000E-03    5.65103520E-13   -9.68114477E-13   -3.37714584E+02    3.09000000E+00
  7.80000000E+02   -5.96628524E-10    2.21623805E+01    3.00000000E-03    5.65103520E-13   -9.68114477E-13   -3.37714584E+02    3.09000000E+00
  7.90000000E+02   -5.96628524E-10    2.21526885E+01    3.00000000E-03    5.65103520E-13   -9.68114477E-13   -3.37714584E+02    3.09000000E+00
  8.00000000E+02   -5.96628524E-10    2.21429014E+01    3.00000000E-03    5.65103520E-13   -9.68114477E-13   -3.37714584E+02    3.09000000E+00
  8.10000000E+02   -5.96628524E-10    2.21330222E+01    3.00000000E-03    5.65103520E-13   -9.68114477E-13   -3.37714584E+02    3.09000000E+00
  8.20000000E+02   -5.96628524E-10    2.21230537E+01    3.00000000E-03    5.65103520E-13   -9.68114477E-13   -3.62145807E+02    3.09000000E+00
  8.30000000E+02   -5.96628524E-10    2.21129987E+01    3.00000000E-03    5.65103520E-13   -9.68114477E-13   -3.62145807E+02    3.09000000E+00
  8.40000000E+02   -5.96628524E-10    2.21028599E+01    3.00000000E-03    5.65103520E-13   -9.68114477E-13   -3.62145807E+02    3.09000000E+00
  8.50000000E+02   -5.96628524E-10    2.20926402E+01    3.00000000E-03    5.65103520E-13   -9.68114477E-13   -3.62145807E+02    3.09000000E+00
  8.60000000E+02   -5.96628524E-10    2.20823421E+01    3.00000000E-03    5.65103520E-13   -9.68114477E-13   -3.62145807E+02    3.09000000E+00
  8.70000000E+02   -5.96628524E-10    2.20719684E+01    3.00000000E-03    5.65103520E-13   -9.68114477E-13   -3.62145807E+02    3.09000000E+00
  8.80000000E+02   -5.96628524E-10    2.20615216E+01    3.00000000E-03    5.65103520E-13   -9.68114477E-13   -3.62145807E+02    3.09000000E+00
  8.90000000E+02   -5.96628524E-10    2.20510044E+01    3.00000000E-03    5.65103520E-13   -9.68114477E-13   -3.62145807E+02    3.09000000E+00
  9.00000000E+02   -5.96628524E-10    2.20404194E+01    3.00000000E-03    5.65103520E-13   -9.68114477E-13   -3.62145807E+02    3.09000000E+00
  9.10000000E+02   -5.96628524E-10    2.20297690E+01    3.00000000E-03    5.65103520E-13   -9.68114477E-13   -3.62145807E+02    3.09000000E+00
  9.20000000E+02   -5.96628524E-10    2.20190557E+01    3.00000000E-03    5.65103520E-13   -9.68114477E-13   -4.24396815E+02    3.09000000E+00
  9.30000000E+02   -5.96628524E-10    2.20082819E+01    3.00000000E-03    5.65103520E-13   -9.68114477E-13   -4.24396815E+02    3.09000000E+00
  9.40000000E+02   -5.96628524E-10    2.19974500E+01    3.00000000E-03    5.65103520E-13   -9.68114477E-13   -4.24396815E+02    3.09000000E+00
  9.50000000E+02   -5.96628524E-10    2.19865624E+01    3.00000000E-03    5.65103520E-13   -9.68114477E-13   -4.24396815E+02    3.09000000E+00
  9.60000000E+02   -5.96628524E-10    2.19756214E+01    3.00000000E-03    5.65103520E-13   -9.68114477E-13   -4.24396815E+02    3.09000000E+00
  9.70000000E+02   -5.96628524E-10    2.19646293E+01    3.00000000E-03    5.65103520E-13   -9.68114477E-13   -4.24396815E+02    3.09000000E+00
  9.80000000E+02   -5.96628524E-10    2.19535882E+01    3.00000000E-03    5.65103520E-13   -9.68114477E-13   -4.24396815E+02    3.09000000E+00
  9.90000000E+02   -5.96628524E-10    2.19425003E+01    3.00000000E-03    5.65103520E-13   -9.68114477E-13   -4.24396815E+02    3.09000000E+00
  1.00000000E+03   -5.96628524E-10    2.19313679E+01    3.00000000E-03    5.65103520E-13   -9.68114477E-13   -4.24396815E+02    3.09000000E+00
  1.01000000E+03   -5.96628524E-10    2.19201929E+01    3.00000000E-03    5.65103520E-13   -9.68114477E-13   -4.24396815E+02    3.09000000E+00
  1.02000000E+03   -5.96628524E-10    2.19089775E+01    3.00000000E-03    5.65103520E-13   -9.68114477E-13   -4.59765449E+02    3.09000000E+00
  1.03000000E+03   -5.96628524E-10    2.18977236E+01    3.00000000E-03    5.65103520E-13   -9.68114477E-13   -4.59765449E+02    3.09000000E+00
  1.04000000E+03   -5.96628524E-10    2.18864332E+01    3.00000000E-03    5.65103520E-13   -9.68114477E-13   -4.59765449E+02    3.09000000E+00
  1.05000000E+03   -5.96628524E-10    2.18751083E+01    3.00000000E-03    5.65103520E-13   -9.68114477E-13   -4.59765449E+02    3.09000000E+00
  1.06000000E+03   -5.96628524E-10    2.18637508E+01    3.00000000E-03    5.65103520E-13   -9.68114477E-13   -4.59765449E+02    3.09000000E+00
  1.07000000E+03   -5.96628524E-10    2.18523625E+01    3.00000000E-03    5.65103520E-13   -9.68114477E-13   -4.59765449E+02    3.09000000E+00
  1.08000000E+03   -5.96628524E-10    2.18409451E+01    3.00000000E-03    5.65103520E-13   -9.68114477E-13   -4.59765449E+02    3.09000000E+00
  1.09000000E+03   -5.96628524E-10    2.18295006E+01    3.00000000E-03    5.65103520E-13   -9.68114477E-13   -4.59765449E+02    3.09000000E+00
  1.10000000E+03   -5.96628524E-10    2.18180305E+01    3.00000000E-03    5.65103520E-13   -9.68114477E-13   -4.59765449E+02    3.09000000E+00
  1.11000000E+03   -5.96628524E-10    2.18065367E+01    3.00000000E-03    5.65103520E-13   -9.68114477E-13   -4.59765449E+02    3.09000000E+00
  1.12000000E+03   -5.96628524E-10    2.17950207E+01    3.00000000E-03    5.65103520E-13   -9.68114477E-13   -4.68060155E+02    3.09000000E+00
  1.13000000E+03   -5.96628524E-10    2.17834842E+01    3.00000000E-03    5.65103520E-13   -9.68114477E-13   -4.68060155E+02    3.09000000E+00
  1.14000000E+03   -5.96628524E-10    2.17719288E+01    3.00000000E-03    5.65103520E-13   -9.68114477E-13   -4.68060155E+02    3.09000000E+00
  1.15000000E+03   -5.96628524E-10    2.17603559E+01    3.00000000E-03    5.65103520E-13   -9.68114477E-13   -4.68060155E+02    3.09000000E+00
  1.16000000E+03   -5.96628524E-10    2.17487672E+01    3.00000000E-03    5.65103520E-13   -9.68114477E-13   -4.68060155E+02    3.09000000E+00
  1.17000000E+03   -5.96628524E-10    2.17371640E+01    3.00000000E-03    5.65103520E-13   -9.68114477E-13   -4.68060155E+02    3.09000000E+00
  1.18000000E+03   -5.96628524E-10    2.17255478E+01    3.00000000E-03    5.65103520E-13   -9.68114477E-13   -4.68060155E+02    3.09000000E+00
  1.19000000E+03   -5.96628524E-10    2.17139200E+01    3.00000000E-03    5.65103520E-13   -9.68114477E-13   -4.68060155E+02    3.09000000E+00
  1.20000000E+03   -5.96628524E-10    2.17022820E+01    3.00000000E-03    5.65103520E-13   -9.68114477E-13   -4.68060155E+02    3.09000000E+00
  1.21000000E+03   -5.96628524E-10    2.16906350E+01    3.00000000E-03    5.65103520E-13   -9.68114477E-13   -4.68060155E+02    3.09000000E+00
  1.22000000E+03   -5.96628524E-10    2.16789805E+01    3.00000000E-03    5.65103520E-13   -9.68114477E-13   -5.29721378E+02    3.09000000E+00
  1.23000000E+03   -5.96628524E-10    2.16673196E+01    3.00000000E-03    5.65103520E-13   -9.68114477E-13   -5.29721378E+02    3.09000000E+00
  1.24000000E+03   -5.96628524E-10    2.16556535E+01    3.00000000E-03    5.65103520E-13   -9.68114477E-13   -5.29721378E+02    3.09000000E+00
  1.25000000E+03   -5.96628524E-10    2.16439836E+01    3.00000000E-03    5.65103520E-13   -9.68114477E-13   -5.29721378E+02    3.09000000E+00
  1.26000000E+03   -5.96628524E-10    2.16323108E+01    3.00000000E-03    5.65103520E-13   -9.68114477E-13   -5.29721378E+02    3.09000000E+00
  1.27000000E+03   -5.96628524E-10    2.16206365E+01    3.00000000E-03    5.65103520E-13   -9.68114477E-13   -5.29721378E+02    3.09000000E+00
  1.28000000E+03   -5.96628524E-10    2.16089616E+01    3.00000000E-03    5.65103520E-13   -9.68114477E-13   -5.29721378E+02    3.09000000E+00
  1.29000000E+03   -5.96628524E-10    2.15972873E+01    3.00000000E-03    5.65103520E-13   -9.68114477E-13   -5.29721378E+02    3.09000000E+00
  1.30000000E+03   -5.96628524E-10    2.15856146E+01    3.00000000E-03    5.65103520E-13   -9.68114477E-13   -5.29721378E+02    3.09000000E+00
  1.31000000E+03   -5.96628524E-10    2.15739445E+01    3.00000000E-03    5.65103520E-13   -9.68114477E-13   -5.29721378E+02    3.09000000E+00
  1.32000000E+03   -5.96628524E-10    2.15622780E+01    3.00000000E-03    5.65103520E-13   -9.68114477E-13   -5.55458389E+02    3.09000000E+00
  1.33000000E+03   -5.96628524E-10    2.15506162E+01    3.00000000E-03    5.65103520E-13   -9.68114477E-13   -5.55458389E+02    3.09000000E+00
  1.34000000E+03   -5.96628524E-10    2.15389598E+01    3.00000000E-03    5.65103520E-13   -9.68114477E-13   -5.55458389E+02    3.09000000E+00
  1.35000000E+03   -5.96628524E-10    2.15273099E+01    3.00000000E-03    5.65103520E-13   -9.68114477E-13   -5.55458389E+02    3.09000000E+00
  1.36000000E+03   -5.96628524E-10    2.15156672E+01    3.00000000E-03    5.65103520E-13   -9.68114477E-13   -5.55458389E+02    3.09000000E+00
  1.37000000E+03   -5.96628524E-10    2.15040328E+01    3.00000000E-03    5.65103520E-13   -9.68114477E-13   -5.55458389E+02    3.09000000E+00
  1.38000000E+03   -5.96628524E-10    2.14924073E+01    3.00000000E-03    5.65103520E-13   -9.68114477E-13   -5.55458389E+02    3.09000000E+00
  1.39000000E+03   -5.96628524E-10    2.14807917E+01    3.00000000E-03    5.65103520E-13   -9.68114477E-13   -5.55458389E+02    3.09000000E+00
  1.40000000E+03   -5.96628524E-10    2.14691866E+01    3.00000000E-03    5.65103520E-13   -9.68114477E-13   -5.55458389E+02    3.09000000E+00
  1.41000000E+03   -5.96628524E-10    2.14575930E+01    3.00000000E-03    5.65103520E-13   -9.68114477E-13   -5.55458389E+02    3.09000000E+00
  1.42000000E+03   -5.96628524E-10    2.14460114E+01    3.00000000E-03    5.65103520E-13   -9.68114477E-13   -5.45163793E+02    3.09000000E+00
  1.43000000E+03   -5.96628524E-10    2.14344427E+01    3.00000000E-03    5.65103520E-13   -9.68114477E-13   -5.45163793E+02    3.09000000E+00
  1.44000000E+03   -5.96628524E-10    2.14228875E+01    3.00000000E-03    5.65103520E-13   -9.68114477E-13   -5.45163793E+02    3.09000000E+00
  1.45000000E+03   -5.96628524E-10    2.14113465E+01    3.00000000E-03    5.65103520E-13   -9.68114477E-13   -5.45163793E+02    3.09000000E+00
  1.46000000E+03   -5.96628524E-10    2.13998203E+01    3.00000000E-03    5.65103520E-13   -9.68114477E-13   -5.45163793E+02    3.09000000E+00
  1.47000000E+03   -5.96628524E-10    2.13883096E+01    3.00000000E-03    5.65103520E-13   -9.68114477E-13   -5.45163793E+02    3.09000000E+00
  1.48000000E+03   -5.96628524E-10    2.13768150E+01    3.00000000E-03    5.65103520E-13   -9.68114477E-13   -5.45163793E+02    3.09000000E+00
  1.49000000E+03   -5.96628524E-10    2.13653372E+01    3.00000000E-03    5.65103520E-13   -9.68114477E-13   -5.45163793E+02    3.09000000E+00
  1.50000000E+03   -5.96628524E-10    2.13538766E+01    3.00000000E-03    5.65103520E-13   -9.68114477E-13   -5.45163793E+02    3.09000000E+00
  1.51000000E+03   -5.96628524E-10    2.13424338E+01    3.00000000E-03    5.65103520E-13   -9.68114477E-13   -5.45163793E+02    3.09000000E+00
  1.52000000E+03   -5.96628524E-10    2.13310094E+01    3.00000000E-03    5.65103520E-13   -9.68114477E-13   -6.04782169E+02    3.09000000E+00
  1.53000000E+03   -5.96628524E-10    2.13196039E+01    3.00000000E-03    5.65103520E-13   -9.68114477E-13   -6.04782169E+02    3.09000000E+00
  1.54000000E+03   -5.96628524E-10    2.13082178E+01    3.00000000E-03    5.65103520E-13   -9.68114477E-13   -6.04782169E+02    3.09000000E+00
  1.55000000E+03   -5.96628524E-10    2.12968515E+01    3.00000000E-03    5.65103520E-13   -9.68114477E-13   -6.04782169E+02    3.09000000E+00
  1.56000000E+03   -5.96628524E-10    2.12855057E+01    3.00000000E-03    5.65103520E-13   -9.68114477E-13   -6.04782169E+02    3.09000000E+00
  1.57000000E+03   -5.96628524E-10    2.12741806E+01    3.00000000E-03    5.65103520E-13   -9.68114477E-13   -6.04782169E+02    3.09000000E+00
  1.58000000E+03   -5.96628524E-10    2.12628768E+01    3.00000000E-03    5.65103520E-13   -9.68114477E-13   -6.04782169E+02    3.09000000E+00
  1.59000000E+03   -5.96628524E-10    2.12515947E+01    3.00000000E-03    5.65103520E-13   -9.68114477E-13   -6.04782169E+02    3.09000000E+00
  1.60000000E+03   -5.96628524E-10    2.12403346E+01    3.00000000E-03    5.65103520E-13   -9.68114477E-13   -6.04782169E+02    3.09000000E+00
  1.61000000E+03   -5.96628524E-10    2.12290970E+01    3.00000000E-03    5.65103520E-13   -9.68114477E-13   -6.04782169E+02    3.09000000E+00
  1.62000000E+03   -5.96628524E-10    2.12178823E+01    3.00000000E-03    5.65103520E-13   -9.68114477E-13   -6.16370134E+02    3.09000000E+00
  1.63000000E+03   -5.96628524E-10    2.12066908E+01    3.00000000E-03    5.65103520E-13   -9.68114477E-13   -6.16370134E+02    3.09000000E+00
  1.64000000E+03   -5.96628524E-10    2.11955229E+01    3.00000000E-03    5.65103520E-13   -9.68114477E-13   -6.16370134E+02    3.09000000E+00
  1.65000000E+03   -5.96628524E-10    2.11843789E+01    3.00000000E-03    5.65103520E-13   -9.68114477E-13   -6.16370134E+02    3.09000000E+00
  1.66000000E+03   -5.96628524E-10    2.11732592E+01    3.00000000E-03    5.65103520E-13   -9.68114477E-13   -6.16370134E+02    3.09000000E+00
  1.67000000E+03   -5.96628524E-10    2.11621640E+01    3.00000000E-03    5.65103520E-13   -9.68114477E-13   -6.16370134E+02    3.09000000E+00
  1.68000000E+03   -5.96628524E-10    2.11510937E+01    3.00000000E-03    5.65103520E-13   -9.68114477E-13   -6.16370134E+02    3.09000000E+00
  1.69000000E+03   -5.96628524E-10    2.11400485E+01    3.00000000E-03    5.65103520E-13   -9.68114477E-13   -6.16370134E+02    3.09000000E+00
  1.70000000E+03   -5.96628524E-10    2.11290288E+01    3.00000000E-03    5.65103520E-13   -9.68114477E-13   -6.16370134E+02    3.09000000E+00
  1.71000000E+03   -5.96628524E-10    2.11180348E+01    3.00000000E-03    5.65103520E-13   -9.68114477E-13   -6.16370134E+02    3.09000000E+00
  1.72000000E+03   -5.96628524E-10    2.11070667E+01    3.00000000E-03    5.65103520E-13   -9.68114477E-13   -5.86360881E+02    3.09000000E+00
  1.73000000E+03   -5.96628524E-10    2.10961248E+01    3.00000000E-03    5.65103520E-13   -9.68114477E-13   -5.86360881E+02    3.09000000E+00
  1.74000000E+03   -5.96628524E-10    2.10852094E+01    3.00000000E-03    5.65103520E-13   -9.68114477E-13   -5.86360881E+02    3.09000000E+00
  1.75000000E+03   -5.96628524E-10    2.10743206E+01    3.00000000E-03    5.65103520E-13   -9.68114477E-13   -5.86360881E+02    3.09000000E+00
  1.76000000E+03   -5.96628524E-10    2.10634588E+01    3.00000000E-03    5.65103520E-13   -9.68114477E-13   -5.86360881E+02    3.09000000E+00
  1.77000000E+03   -5.96628524E-10    2.10526239E+01    3.00000000E-03    5.65103520E-13   -9.68114477E-13   -5.86360881E+02    3.09000000E+00
  1.78000000E+03   -5.96628524E-10    2.10418164E+01    3.00000000E-03    5.65103520E-13   -9.68114477E-13   -5.86360881E+02    3.09000000E+00
  1.79000000E+03   -5.96628524E-10    2.10310364E+01    3.00000000E-03    5.65103520E-13   -9.68114477E-13   -5.86360881E+02    3.09000000E+00
  1.80000000E+03   -5.96628524E-10    2.10202840E+01    3.00000000E-03    5.65103520E-13   -9.68114477E-13   -5.86360881E+02    3.09000000E+00
  1.81000000E+03   -5.96628524E-10    2.10095594E+01    3.00000000E-03    5.65103520E-13   -9.68114477E-13   -5.86360881E+02    3.09000000E+00
  1.82000000E+03   -5.96628524E-10    2.09988627E+01    3.00000000E-03    5.65103520E-13   -9.68114477E-13   -6.43114828E+02    3.09000000E+00
  1.83000000E+03   -5.96628524E-10    2.09881942E+01    3.00000000E-03    5.65103520E-13   -9.68114477E-13   -6.43114828E+02    3.09000000E+00
  1.84000000E+03   -5.96628524E-10    2.09775540E+01    3.00000000E-03    5.65103520E-13   -9.68114477E-13   -6.43114828E+02    3.09000000E+00
  1.85000000E+03   -5.96628524E-10    2.09669422E+01    3.00000000E-03    5.65103520E-13   -9.68114477E-13   -6.43114828E+02    3.09000000E+00
  1.86000000E+03   -5.96628524E-10    2.09563589E+01    3.00000000E-03    5.65103520E-13   -9.68114477E-13   -6.43114828E+02    3.09000000E+00
  1.87000000E+03   -5.96628524E-10    2.09458043E+01    3.00000000E-03    5.65103520E-13   -9.68114477E-13   -6.43114828E+02    3.09000000E+00
  1.88000000E+03   -5.96628524E-10    2.09352785E+01    3.00000000E-03    5.65103520E-13   -9.68114477E-13   -6.43114828E+02    3.09000000E+00
  1.89000000E+03   -5.96628524E-10    2.09247816E+01    3.00000000E-03    5.65103520E-13   -9.68114477E-13   -6.43114828E+02    3.09000000E+00
  1.90000000E+03   -5.96628524E-10    2.09143136E+01    3.00000000E-03    5.65103520E-13   -9.68114477E-13   -6.43114828E+02    3.09000000E+00
  1.91000000E+03   -5.96628524E-10    2.09038747E+01    3.00000000E-03    5.65103520E-13   -9.68114477E-13   -6.43114828E+02    3.09000000E+00
  1.92000000E+03   -5.96628524E-10    2.08934650E+01    3.00000000E-03    5.65103520E-13   -9.68114477E-13   -6.36396692E+02    3.09000000E+00
  1.93000000E+03   -5.96628524E-10    2.08830845E+01    3.00000000E-03    5.65103520E-13   -9.68114477E-13   -6.36396692E+02    3.09000000E+00
  1.94000000E+03   -5.96628524E-10    2.08727334E+01    3.00000000E-03    5.65103520E-13   -9.68114477E-13   -6.36396692E+02    3.09000000E+00
  1.95000000E+03   -5.96628524E-10    2.08624117E+01    3.00000000E-03    5.65103520E-13   -9.68114477E-13   -6.36396692E+02    3.09000000E+00
  1.96000000E+03   -5.96628524E-10    2.08521194E+01    3.00000000E-03    5.65103520E-13   -9.68114477E-13   -6.36396692E+02    3.09000000E+00
  1.97000000E+03   -5.96628524E-10    2.08418566E+01    3.00000000E-03    5.65103520E-13   -9.68114477E-13   -6.36396692E+02    3.09000000E+00
  1.98000000E+03   -5.96628524E-10    2.08316235E+01    3.00000000E-03    5.65103520E-13   -9.68114477E-13   -6.36396692E+02    3.09000000E+00
  1.99000000E+03   -5.96628524E-10    2.08214199E+01    3.00000000E-03    5.65103520E-13   -9.68114477E-13   -6.36396692E+02    3.09000000E+00
  2.00000000E+03   -5.96628524E-10    2.08112460E+01    3.00000000E-03    5.65103520E-13   -9.68114477E-13   -6.36396692E+02    3.09000000E+00
  2.01000000E+03   -5.96628524E-10    2.08011018E+01    3.00000000E-03    5.65103520E-13   -9.68114477E-13   -6.36396692E+02    3.09000000E+00
  2.02000000E+03   -5.96628524E-10    2.07909873E+01    3.00000000E-03    5.65103520E-13   -9.68114477E-13   -6.09852970E+02    3.09000000E+00
  2.03000000E+03   -5.96628524E-10    2.07809027E+01    3.00000000E-03    5.65103520E-13   -9.68114477E-13   -6.09852970E+02    3.09000000E+00
  2.04000000E+03   -5.96628524E-10    2.07708477E+01    3.00000000E-03    5.65103520E-13   -9.68114477E-13   -6.09852970E+02    3.09000000E+00
  2.05000000E+03   -5.96628524E-10    2.07608226E+01    3.00000000E-03    5.65103520E-13   -9.68114477E-13   -6.09852970E+02    3.09000000E+00
  2.06000000E+03   -5.96628524E-10    2.07508274E+01    3.00000000E-03    5.65103520E-13   -9.68114477E-13   -6.09852970E+02    3.09000000E+00
  2.07000000E+03   -5.96628524E-10    2.07408619E+01    3.00000000E-03    5.65103520E-13   -9.68114477E-13   -6.09852970E+02    3.09000000E+00
  2.08000000E+03   -5.96628524E-10    2.07309263E+01    3.00000000E-03    5.65103520E-13   -9.68114477E-13   -6.09852970E+02    3.09000000E+00
  2.09000000E+03   -5.96628524E-10    2.07210206E+01    3.00000000E-03    5.65103520E-13   -9.68114477E-13   -6.09852970E+02    3.09000000E+00