variables = "time","head","temp",                            "conc","vx","vz","sig_kk","kx"
zone
  1.00000000E+01    3.71073838E-09    4.74447119E+01    9.00000000E-03    0.00000000E+00    0.00000000E+00   -3.35349070E+00    3.09000000E-02
  2.00000000E+01    6.67932909E-09    4.74447119E+01    9.00000000E-03   -3.62904151E-14    5.86197757E-13   -1.75519946E+01    3.09000000E-02
  3.00000000E+01    9.03673936E-09    4.74447119E+01    9.00000000E-03   -1.92641042E-13    5.39845946E-13   -1.75519946E+01    3.09000000E-02
  4.00000000E+01    1.09139364E-08    4.74447119E+01    9.00000000E-03   -3.50813129E-13    6.11177775E-13   -1.75519946E+01    3.09000000E-02
  5.00000000E+01    1.24855433E-08    4.74447119E+01    9.00000000E-03   -4.90701230E-13    6.43096687E-13   -1.75519946E+01    3.09000000E-02
  6.00000000E+01    1.37952156E-08    4.74447119E+01    9.00000000E-03   -6.04603173E-13    6.71962486E-13   -1.75519946E+01    3.09000000E-02
  7.00000000E+01    1.49302650E-08    4.74447119E+01    9.00000000E-03   -7.13804016E-13    6.48647802E-13   -1.75519946E+01    3.09000000E-02
  8.00000000E+01    1.59197953E-08    4.74447119E+01    9.00000000E-03   -7.99707522E-13    6.90281166E-13   -1.75519946E+01    3.09000000E-02
  9.00000000E+01    1.67492544E-08    4.74447119E+01    9.00000000E-03   -9.01397013E-13    7.84372567E-13   -1.75519946E+01    3.09000000E-02
  1.00000000E+02    1.74768502E-08    4.74447119E+01    9.00000000E-03   -9.77551373E-13    7.73825448E-13   -1.75519946E+01    3.09000000E-02
  1.10000000E+02    1.81025825E-08    4.74447119E+01    9.00000000E-03   -1.06673351E-12    8.43214387E-13   -1.75519946E+01    3.09000000E-02
  1.20000000E+02    1.86555553E-08    4.74447119E+01    9.00000000E-03   -1.13490814E-12    7.97695243E-13   -3.53557073E+01    3.09000000E-02
  1.30000000E+02    1.91503204E-08    4.74447119E+01    9.00000000E-03   -1.20502566E-12    8.05189249E-13   -3.53557073E+01    3.09000000E-02
  1.40000000E+02    1.95868779E-08    4.74447119E+01    9.00000000E-03   -1.26076233E-12    8.40161274E-13   -3.53557073E+01    3.09000000E-02
  1.50000000E+02    1.99797796E-08    4.74447119E+01    9.00000000E-03   -1.31412242E-12    8.21565038E-13   -3.53557073E+01    3.09000000E-02
  1.60000000E+02    2.03144737E-08    4.74447119E+01    9.00000000E-03   -1.36701414E-12    8.47100168E-13   -3.53557073E+01    3.09000000E-02
  1.70000000E+02    2.05909600E-08    4.74447119E+01    9.00000000E-03   -1.39912387E-12    8.73745520E-13   -3.53557073E+01    3.09000000E-02
  1.80000000E+02    2.08528945E-08    4.74447119E+01    9.00000000E-03   -1.43300302E-12    8.46267501E-13   -3.53557073E+01    3.09000000E-02
  1.90000000E+02    2.10711733E-08    4.74447119E+01    9.00000000E-03   -1.46974447E-12    8.81794637E-13   -3.53557073E+01    3.09000000E-02
  2.00000000E+02    2.12603481E-08    4.74447119E+01    9.00000000E-03   -1.50502874E-12    8.80961970E-13   -3.53557073E+01    3.09000000E-02
  2.10000000E+02    2.14204192E-08    4.74447119E+01    9.00000000E-03   -1.51526361E-12    8.89288643E-13   -3.53557073E+01    3.09000000E-02
  2.20000000E+02    2.15804903E-08    4.74447119E+01    9.00000000E-03   -1.52843016E-12    9.06219544E-13   -5.97836804E+01    3.09000000E-02
  2.30000000E+02    2.16969056E-08    4.74447119E+01    9.00000000E-03   -1.55278568E-12    9.24260668E-13   -5.97836804E+01    3.09000000E-02
  2.40000000E+02    2.18569767E-08    4.74447119E+01    9.00000000E-03   -1.56515426E-12    9.24538224E-13   -5.97836804E+01    3.09000000E-02
  2.50000000E+02    2.19733920E-08    4.74447119E+01    9.00000000E-03   -1.57622179E-12    9.23150445E-13   -5.97836804E+01    3.09000000E-02
  2.60000000E+02    2.21189111E-08    4.74447119E+01    9.00000000E-03   -1.59457517E-12    9.49240686E-13   -5.97836804E+01    3.09000000E-02
  2.70000000E+02    2.22062226E-08    4.74447119E+01    9.00000000E-03   -1.61292854E-12    8.86513085E-13   -5.97836804E+01    3.09000000E-02
  2.80000000E+02    2.22498784E-08    4.74447119E+01    9.00000000E-03   -1.62033581E-12    9.03721542E-13   -5.97836804E+01    3.09000000E-02
  2.90000000E+02    2.23226380E-08    4.74447119E+01    9.00000000E-03   -1.62571345E-12    9.12325770E-13   -5.97836804E+01    3.09000000E-02
  3.00000000E+02    2.23517418E-08    4.74447119E+01    9.00000000E-03   -1.62876657E-12    9.20374887E-13   -5.97836804E+01    3.09000000E-02
  3.10000000E+02    2.23953975E-08    4.74447119E+01    9.00000000E-03   -1.62691041E-12    9.10660436E-13   -5.97836804E+01    3.09000000E-02
  3.20000000E+02    2.24245014E-08    4.74447119E+01    9.00000000E-03   -1.63058803E-12    9.18709553E-13   -9.35098697E+01    3.09000000E-02
  3.30000000E+02    2.24827090E-08    4.74447119E+01    9.00000000E-03   -1.62720531E-12    9.27591337E-13   -9.35098697E+01    3.09000000E-02
  3.40000000E+02    2.25409167E-08    4.74447119E+01    9.00000000E-03   -1.64290456E-12    9.18431997E-13   -9.35098697E+01    3.09000000E-02
  3.50000000E+02    2.25700205E-08    4.74447119E+01    9.00000000E-03   -1.65260167E-12    9.07884878E-13   -9.35098697E+01    3.09000000E-02
  3.60000000E+02    2.25991243E-08    4.74447119E+01    9.00000000E-03   -1.65749359E-12    8.97060204E-13   -9.35098697E+01    3.09000000E-02
  3.70000000E+02    2.26282282E-08    4.74447119E+01    9.00000000E-03   -1.66235081E-12    9.14823772E-13   -9.35098697E+01    3.09000000E-02
  3.80000000E+02    2.26282282E-08    4.74447119E+01    9.00000000E-03   -1.66717334E-12    8.95672425E-13   -9.35098697E+01    3.09000000E-02
  3.90000000E+02    2.26573320E-08    4.74447119E+01    9.00000000E-03   -1.66477943E-12    8.95672425E-13   -9.35098697E+01    3.09000000E-02
  4.00000000E+02    2.26864358E-08    4.74447119E+01    9.00000000E-03   -1.67015707E-12    9.30644450E-13   -9.35098697E+01    3.09000000E-02
  4.10000000E+02    2.27155397E-08    4.74447119E+01    9.00000000E-03   -1.67890007E-12    8.94562202E-13   -9.35098697E+01    3.09000000E-02
  4.20000000E+02    2.27446435E-08    4.74447119E+01    9.00000000E-03   -1.68533590E-12    9.20097332E-13   -1.25944387E+02    3.09000000E-02
  4.30000000E+02    2.27737473E-08    4.74447119E+01    9.00000000E-03   -1.68969005E-12    9.02611319E-13   -1.25944387E+02    3.09000000E-02
  4.40000000E+02    2.27737473E-08    4.74447119E+01    9.00000000E-03   -1.69956063E-12    8.93174423E-13   -1.25944387E+02    3.09000000E-02
  4.50000000E+02    2.27737473E-08    4.74447119E+01    9.00000000E-03   -1.69730549E-12    8.92341756E-13   -1.25944387E+02    3.09000000E-02
  4.60000000E+02    2.27591954E-08    4.74447119E+01    9.00000000E-03   -1.70008105E-12    8.91509089E-13   -1.25944387E+02    3.09000000E-02
  4.70000000E+02    2.27591954E-08    4.74447119E+01    9.00000000E-03   -1.69989023E-12    9.18154441E-13   -1.25944387E+02    3.09000000E-02
  4.80000000E+02    2.27591954E-08    4.74447119E+01    9.00000000E-03   -1.69701059E-12    9.16766663E-13   -1.25944387E+02    3.09000000E-02
  4.90000000E+02    2.27446435E-08    4.74447119E+01    9.00000000E-03   -1.69534525E-12    9.16211551E-13   -1.25944387E+02    3.09000000E-02
  5.00000000E+02    2.27155397E-08    4.74447119E+01    9.00000000E-03   -1.68927372E-12    8.97615315E-13   -1.25944387E+02    3.09000000E-02
  5.10000000E+02    2.27155397E-08    4.74447119E+01    9.00000000E-03   -1.68257769E-12    9.14268661E-13   -1.25944387E+02    3.09000000E-02
  5.20000000E+02    2.27155397E-08    4.74447119E+01    9.00000000E-03   -1.67964601E-12    9.23150445E-13   -1.57348579E+02    3.09000000E-02
  5.30000000E+02    2.27155397E-08    4.74447119E+01    9.00000000E-03   -1.67853578E-12    9.22872889E-13   -1.57348579E+02    3.09000000E-02
  5.40000000E+02    2.27155397E-08    4.74447119E+01    9.00000000E-03   -1.67624595E-12    9.21485110E-13   -1.57348579E+02    3.09000000E-02
  5.50000000E+02    2.27155397E-08    4.74447119E+01    9.00000000E-03   -1.67624595E-12    9.21485110E-13   -1.57348579E+02    3.09000000E-02
  5.60000000E+02    2.27155397E-08    4.74447119E+01    9.00000000E-03   -1.67513572E-12    9.20929999E-13   -1.57348579E+02    3.09000000E-02
  5.70000000E+02    2.27155397E-08    4.74447119E+01    9.00000000E-03   -1.67334896E-12    9.20652443E-13   -1.57348579E+02    3.09000000E-02
  5.80000000E+02    2.27155397E-08    4.74447119E+01    9.00000000E-03   -1.67279385E-12    9.20652443E-13   -1.57348579E+02    3.09000000E-02
  5.90000000E+02    2.27155397E-08    4.74447119E+01    9.00000000E-03   -1.67109382E-12    9.19542220E-13   -1.57348579E+02    3.09000000E-02
  6.00000000E+02    2.27155397E-08    4.74447119E+01    9.00000000E-03   -1.67053871E-12    9.18987109E-13   -1.57348579E+02    3.09000000E-02
  6.10000000E+02    2.27155397E-08    4.74447119E+01    9.00000000E-03   -1.66876929E-12    9.18431997E-13   -1.57348579E+02    3.09000000E-02
  6.20000000E+02    2.27155397E-08    4.74447119E+01    9.00000000E-03   -1.66821418E-12    9.17876886E-13   -2.00313424E+02    3.09000000E-02
  6.30000000E+02    2.27155397E-08    4.74447119E+01    9.00000000E-03   -1.66821418E-12    9.17876886E-13   -2.00313424E+02    3.09000000E-02
  6.40000000E+02    2.27155397E-08    4.74447119E+01    9.00000000E-03   -1.66821418E-12    9.17876886E-13   -2.00313424E+02    3.09000000E-02
  6.50000000E+02    2.27155397E-08    4.74447120E+01    9.00000000E-03   -1.66654884E-12    9.17599330E-13   -2.00313424E+02    3.09000000E-02
  6.60000000E+02    2.27155397E-08    4.74447120E+01    9.00000000E-03   -1.66654884E-12    9.17599330E-13   -2.00313424E+02    3.09000000E-02
  6.70000000E+02    2.27155397E-08    4.74447120E+01    9.00000000E-03   -1.66595904E-12    9.17321774E-13   -2.00313424E+02    3.09000000E-02
  6.80000000E+02    2.27155397E-08    4.74447120E+01    9.00000000E-03   -1.66595904E-12    9.17321774E-13   -2.00313424E+02    3.09000000E-02
  6.90000000E+02    2.27155397E-08    4.74447120E+01    9.00000000E-03   -1.66595904E-12    9.17321774E-13   -2.00313424E+02    3.09000000E-02
  7.00000000E+02    2.27155397E-08    4.74447120E+01    9.00000000E-03   -1.66540393E-12    9.17044218E-13   -2.00313424E+02    3.09000000E-02
  7.10000000E+02    2.27155397E-08    4.74447120E+01    9.00000000E-03   -1.66363451E-12    9.16211551E-13   -2.00313424E+02    3.09000000E-02
  7.20000000E+02    2.27155397E-08    4.74447120E+01    9.00000000E-03   -1.66248959E-12    9.15378884E-13   -2.39531932E+02    3.09000000E-02
  7.30000000E+02    2.27155397E-08    4.74447120E+01    9.00000000E-03   -1.66248959E-12    9.15378884E-13   -2.39531932E+02    3.09000000E-02
  7.40000000E+02    2.27155397E-08    4.74447121E+01    9.00000000E-03   -1.65912423E-12    9.14268661E-13   -2.39531932E+02    3.09000000E-02
  7.50000000E+02    2.27155397E-08    4.74447121E+01    9.00000000E-03   -1.65849973E-12    9.13713549E-13   -2.39531932E+02    3.09000000E-02
  7.60000000E+02    2.27155397E-08    4.74447121E+01    9.00000000E-03   -1.65849973E-12    9.13713549E-13   -2.39531932E+02    3.09000000E-02
  7.70000000E+02    2.27155397E-08    4.74447121E+01    9.00000000E-03   -1.65849973E-12    9.13713549E-13   -2.39531932E+02    3.09000000E-02
  7.80000000E+02    2.27155397E-08    4.74447121E+01    9.00000000E-03   -1.65849973E-12    9.13713549E-13   -2.39531932E+02    3.09000000E-02
  7.90000000E+02    2.27155397E-08    4.74447121E+01    9.00000000E-03   -1.65794461E-12    9.13158438E-13   -2.39531932E+02    3.09000000E-02
  8.00000000E+02    2.27155397E-08    4.74447122E+01    9.00000000E-03   -1.65678235E-12    9.13158438E-13   -2.39531932E+02    3.09000000E-02
  8.10000000E+02    2.27155397E-08    4.74447122E+01    9.00000000E-03   -1.65619254E-12    9.13158438E-13   -2.39531932E+02    3.09000000E-02
  8.20000000E+02    2.27155397E-08    4.74447122E+01    9.00000000E-03   -1.65556804E-12    9.12603326E-13   -2.70602396E+02    3.09000000E-02
  8.30000000E+02    2.27155397E-08    4.74447123E+01    9.00000000E-03   -1.65327821E-12    9.12325770E-13   -2.70602396E+02    3.09000000E-02
  8.40000000E+02    2.27155397E-08    4.74447123E+01    9.00000000E-03   -1.65327821E-12    9.12325770E-13   -2.70602396E+02    3.09000000E-02
  8.50000000E+02    2.27155397E-08    4.74447123E+01    9.00000000E-03   -1.65327821E-12    9.12325770E-13   -2.70602396E+02    3.09000000E-02
  8.60000000E+02    2.27155397E-08    4.74447123E+01    9.00000000E-03   -1.65327821E-12    9.12325770E-13   -2.70602396E+02    3.09000000E-02
  8.70000000E+02    2.27155397E-08    4.74447124E+01    9.00000000E-03   -1.65327821E-12    9.12325770E-13   -2.70602396E+02    3.09000000E-02
  8.80000000E+02    2.27155397E-08    4.74447124E+01    9.00000000E-03   -1.65327821E-12    9.12325770E-13   -2.70602396E+02    3.09000000E-02
  8.90000000E+02    2.27155397E-08    4.74447125E+01    9.00000000E-03   -1.65327821E-12    9.12325770E-13   -2.70602396E+02    3.09000000E-02
  9.00000000E+02    2.27155397E-08    4.74447125E+01    9.00000000E-03   -1.65327821E-12    9.12325770E-13   -2.70602396E+02    3.09000000E-02
  9.10000000E+02    2.27155397E-08    4.74447125E+01    9.00000000E-03   -1.65327821E-12    9.12325770E-13   -2.70602396E+02    3.09000000E-02
  9.20000000E+02    2.27155397E-08    4.74447126E+01    9.00000000E-03   -1.65327821E-12    9.12325770E-13   -3.18434186E+02    3.09000000E-02
  9.30000000E+02    2.27155397E-08    4.74447126E+01    9.00000000E-03   -1.65327821E-12    9.12325770E-13   -3.18434186E+02    3.09000000E-02
  9.40000000E+02    2.27155397E-08    4.74447127E+01    9.00000000E-03   -1.65327821E-12    9.12325770E-13   -3.18434186E+02    3.09000000E-02
  9.50000000E+02    2.27155397E-08    4.74447127E+01    9.00000000E-03   -1.65327821E-12    9.12325770E-13   -3.18434186E+02    3.09000000E-02
  9.60000000E+02    2.27155397E-08    4.74447128E+01    9.00000000E-03   -1.65324351E-12    9.12325770E-13   -3.18434186E+02    3.09000000E-02
  9.70000000E+02    2.27155397E-08    4.74447128E+01    9.00000000E-03   -1.65324351E-12    9.12325770E-13   -3.18434186E+02    3.09000000E-02
  9.80000000E+02    2.27155397E-08    4.74447129E+01    9.00000000E-03   -1.65324351E-12    9.12325770E-13   -3.18434186E+02    3.09000000E-02
  9.90000000E+02    2.27155397E-08    4.74447129E+01    9.00000000E-03   -1.65324351E-12    9.12325770E-13   -3.18434186E+02    3.09000000E-02
  1.00000000E+03    2.27155397E-08    4.74447130E+01    9.00000000E-03   -1.65324351E-12    9.12325770E-13   -3.18434186E+02    3.09000000E-02
  1.01000000E+03    2.27155397E-08    4.74447131E+01    9.00000000E-03   -1.65324351E-12    9.12325770E-13   -3.18434186E+02    3.09000000E-02
  1.02000000E+03    2.27300916E-08    4.74447131E+01    9.00000000E-03   -1.65324351E-12    9.12325770E-13   -3.60489920E+02    3.09000000E-02
  1.03000000E+03    2.27300916E-08    4.74447132E+01    9.00000000E-03   -1.65315678E-12    8.94562202E-13   -3.60489920E+02    3.09000000E-02
  1.04000000E+03    2.27300916E-08    4.74447132E+01    9.00000000E-03   -1.65260167E-12    8.94007091E-13   -3.60489920E+02    3.09000000E-02
  1.05000000E+03    2.27300916E-08    4.74447133E+01    9.00000000E-03   -1.65027714E-12    8.92896868E-13   -3.60489920E+02    3.09000000E-02
  1.06000000E+03    2.27300916E-08    4.74447134E+01    9.00000000E-03   -1.64968733E-12    8.92619312E-13   -3.60489920E+02    3.09000000E-02
  1.07000000E+03    2.27300916E-08    4.74447134E+01    9.00000000E-03   -1.64746689E-12    8.91509089E-13   -3.60489920E+02    3.09000000E-02
  1.08000000E+03    2.27300916E-08    4.74447135E+01    9.00000000E-03   -1.64746689E-12    8.91509089E-13   -3.60489920E+02    3.09000000E-02
  1.09000000E+03    2.27300916E-08    4.74447135E+01    9.00000000E-03   -1.64746689E-12    8.91509089E-13   -3.60489920E+02    3.09000000E-02
  1.10000000E+03    2.27300916E-08    4.74447136E+01    9.00000000E-03   -1.64746689E-12    8.91509089E-13   -3.60489920E+02    3.09000000E-02
  1.11000000E+03    2.27300916E-08    4.74447137E+01    9.00000000E-03   -1.64746689E-12    8.91509089E-13   -3.60489920E+02    3.09000000E-02
  1.12000000E+03    2.27300916E-08    4.74447137E+01    9.00000000E-03   -1.64684238E-12    8.91509089E-13   -3.86862563E+02    3.09000000E-02
  1.13000000E+03    2.27300916E-08    4.74447138E+01    9.00000000E-03   -1.64573216E-12    8.91231533E-13   -3.86862563E+02    3.09000000E-02
  1.14000000E+03    2.27300916E-08    4.74447138E+01    9.00000000E-03   -1.64566277E-12    8.91231533E-13   -3.86862563E+02    3.09000000E-02
  1.15000000E+03    2.27300916E-08    4.74447139E+01    9.00000000E-03   -1.64566277E-12    8.91231533E-13   -3.86862563E+02    3.09000000E-02
  1.16000000E+03    2.27300916E-08    4.74447139E+01    9.00000000E-03   -1.64566277E-12    8.90676422E-13   -3.86862563E+02    3.09000000E-02
  1.17000000E+03    2.27300916E-08    4.74447139E+01    9.00000000E-03   -1.64510766E-12    8.90398866E-13   -3.86862563E+02    3.09000000E-02
  1.18000000E+03    2.27300916E-08    4.74447140E+01    9.00000000E-03   -1.64285252E-12    8.89843754E-13   -3.86862563E+02    3.09000000E-02
  1.19000000E+03    2.27300916E-08    4.74447140E+01    9.00000000E-03   -1.64285252E-12    8.89843754E-13   -3.86862563E+02    3.09000000E-02
  1.20000000E+03    2.27300916E-08    4.74447140E+01    9.00000000E-03   -1.64285252E-12    8.89843754E-13   -3.86862563E+02    3.09000000E-02
  1.21000000E+03    2.27300916E-08    4.74447140E+01    9.00000000E-03   -1.64285252E-12    8.89843754E-13   -3.86862563E+02    3.09000000E-02
  1.22000000E+03    2.27300916E-08    4.74447140E+01    9.00000000E-03   -1.64285252E-12    8.89843754E-13   -4.37729550E+02    3.09000000E-02
  1.23000000E+03    2.27300916E-08    4.74447140E+01    9.00000000E-03   -1.64285252E-12    8.89843754E-13   -4.37729550E+02    3.09000000E-02
  1.24000000E+03    2.27300916E-08    4.74447140E+01    9.00000000E-03   -1.64285252E-12    8.89843754E-13   -4.37729550E+02    3.09000000E-02
  1.25000000E+03    2.27300916E-08    4.74447140E+01    9.00000000E-03   -1.64285252E-12    8.89843754E-13   -4.37729550E+02    3.09000000E-02
  1.26000000E+03    2.27300916E-08    4.74447140E+01    9.00000000E-03   -1.64285252E-12    8.89843754E-13   -4.37729550E+02    3.09000000E-02
  1.27000000E+03    2.27300916E-08    4.74447139E+01    9.00000000E-03   -1.64285252E-12    8.89843754E-13   -4.37729550E+02    3.09000000E-02
  1.28000000E+03    2.27300916E-08    4.74447139E+01    9.00000000E-03   -1.64285252E-12    8.89843754E-13   -4.37729550E+02    3.09000000E-02
  1.29000000E+03    2.27300916E-08    4.74447138E+01    9.00000000E-03   -1.64285252E-12    8.89843754E-13   -4.37729550E+02    3.09000000E-02
  1.30000000E+03    2.27300916E-08    4.74447137E+01    9.00000000E-03   -1.64285252E-12    8.89843754E-13   -4.37729550E+02    3.09000000E-02
  1.31000000E+03    2.27300916E-08    4.74447136E+01    9.00000000E-03   -1.64285252E-12    8.89843754E-13   -4.37729550E+02    3.09000000E-02
  1.32000000E+03    2.27300916E-08    4.74447134E+01    9.00000000E-03   -1.64285252E-12    8.89843754E-13   -4.80026569E+02    3.09000000E-02
  1.33000000E+03    2.27300916E-08    4.74447133E+01    9.00000000E-03   -1.64285252E-12    8.89843754E-13   -4.80026569E+02    3.09000000E-02
  1.34000000E+03    2.27300916E-08    4.74447131E+01    9.00000000E-03   -1.64285252E-12    8.89843754E-13   -4.80026569E+02    3.09000000E-02
  1.35000000E+03    2.27300916E-08    4.74447129E+01    9.00000000E-03   -1.64285252E-12    8.89843754E-13   -4.80026569E+02    3.09000000E-02
  1.36000000E+03    2.27300916E-08    4.74447127E+01    9.00000000E-03   -1.64285252E-12    8.89843754E-13   -4.80026569E+02    3.09000000E-02
  1.37000000E+03    2.27300916E-08    4.74447125E+01    9.00000000E-03   -1.64285252E-12    8.89843754E-13   -4.80026569E+02    3.09000000E-02
  1.38000000E+03    2.27300916E-08    4.74447122E+01    9.00000000E-03   -1.64285252E-12    8.89843754E-13   -4.80026569E+02    3.09000000E-02
  1.39000000E+03    2.27300916E-08    4.74447119E+01    9.00000000E-03   -1.64285252E-12    8.89843754E-13   -4.80026569E+02    3.09000000E-02
  1.40000000E+03    2.27300916E-08    4.74447115E+01    9.00000000E-03   -1.64285252E-12    8.89843754E-13   -4.80026569E+02    3.09000000E-02
  1.41000000E+03    2.27300916E-08    4.74447112E+01    9.00000000E-03   -1.64285252E-12    8.89843754E-13   -4.80026569E+02    3.09000000E-02
  1.42000000E+03    2.27300916E-08    4.74447108E+01    9.00000000E-03   -1.64285252E-12    8.89843754E-13   -4.98247738E+02    3.09000000E-02
  1.43000000E+03    2.27300916E-08    4.74447103E+01    9.00000000E-03   -1.64285252E-12    8.89843754E-13   -4.98247738E+02    3.09000000E-02
  1.44000000E+03    2.27300916E-08    4.74447098E+01    9.00000000E-03   -1.64285252E-12    8.89843754E-13   -4.98247738E+02    3.09000000E-02
  1.45000000E+03    2.27300916E-08    4.74447093E+01    9.00000000E-03   -1.64285252E-12    8.89843754E-13   -4.98247738E+02    3.09000000E-02
  1.46000000E+03    2.27300916E-08    4.74447087E+01    9.00000000E-03   -1.64285252E-12    8.89843754E-13   -4.98247738E+02    3.09000000E-02
  1.47000000E+03    2.27300916E-08    4.74447081E+01    9.00000000E-03   -1.64285252E-12    8.89843754E-13   -4.98247738E+02    3.09000000E-02
  1.48000000E+03    2.27300916E-08    4.74447075E+01    9.00000000E-03   -1.64285252E-12    8.89843754E-13   -4.98247738E+02    3.09000000E-02
  1.49000000E+03    2.27300916E-08    4.74447068E+01    9.00000000E-03   -1.64285252E-12    8.89843754E-13   -4.98247738E+02    3.09000000E-02
  1.50000000E+03    2.27300916E-08    4.74447060E+01    9.00000000E-03   -1.64285252E-12    8.89843754E-13   -4.98247738E+02    3.09000000E-02
  1.51000000E+03    2.27300916E-08    4.74447052E+01    9.00000000E-03   -1.64285252E-12    8.89843754E-13   -4.98247738E+02    3.09000000E-02
  1.52000000E+03    2.27300916E-08    4.74447043E+01    9.00000000E-03   -1.64285252E-12    8.89843754E-13   -5.51313786E+02    3.09000000E-02
  1.53000000E+03    2.27300916E-08    4.74447033E+01    9.00000000E-03   -1.64285252E-12    8.89843754E-13   -5.51313786E+02    3.09000000E-02
  1.54000000E+03    2.27300916E-08    4.74447023E+01    9.00000000E-03   -1.64285252E-12    8.89843754E-13   -5.51313786E+02    3.09000000E-02
  1.55000000E+03    2.27300916E-08    4.74447012E+01    9.00000000E-03   -1.64285252E-12    8.89843754E-13   -5.51313786E+02    3.09000000E-02
  1.56000000E+03    2.27300916E-08    4.74447001E+01    9.00000000E-03   -1.64285252E-12    8.89843754E-13   -5.51313786E+02    3.09000000E-02
  1.57000000E+03    2.27300916E-08    4.74446989E+01    9.00000000E-03   -1.64285252E-12    8.89843754E-13   -5.51313786E+02    3.09000000E-02
  1.58000000E+03    2.27300916E-08    4.74446976E+01    9.00000000E-03   -1.64285252E-12    8.89843754E-13   -5.51313786E+02    3.09000000E-02
  1.59000000E+03    2.27300916E-08    4.74446962E+01    9.00000000E-03   -1.64285252E-12    8.89843754E-13   -5.51313786E+02    3.09000000E-02
  1.60000000E+03    2.27300916E-08    4.74446947E+01    9.00000000E-03   -1.64285252E-12    8.89843754E-13   -5.51313786E+02    3.09000000E-02
  1.61000000E+03    2.27300916E-08    4.74446932E+01    9.00000000E-03   -1.64285252E-12    8.89843754E-13   -5.51313786E+02    3.09000000E-02
  1.62000000E+03    2.27300916E-08    4.74446915E+01    9.00000000E-03   -1.64285252E-12    8.89843754E-13   -5.91477216E+02    3.09000000E-02
  1.63000000E+03    2.27300916E-08    4.74446898E+01    9.00000000E-03   -1.64285252E-12    8.89843754E-13   -5.91477216E+02    3.09000000E-02
  1.64000000E+03    2.27300916E-08    4.74446879E+01    9.00000000E-03   -1.64285252E-12    8.89843754E-13   -5.91477216E+02    3.09000000E-02
  1.65000000E+03    2.27300916E-08    4.74446860E+01    9.00000000E-03   -1.64285252E-12    8.89843754E-13   -5.91477216E+02    3.09000000E-02
  1.66000000E+03    2.27300916E-08    4.74446839E+01    9.00000000E-03   -1.64285252E-12    8.89843754E-13   -5.91477216E+02    3.09000000E-02
  1.67000000E+03    2.27300916E-08    4.74446818E+01    9.00000000E-03   -1.64285252E-12    8.89843754E-13   -5.91477216E+02    3.09000000E-02
  1.68000000E+03    2.27300916E-08    4.74446795E+01    9.00000000E-03   -1.64285252E-12    8.89843754E-13   -5.91477216E+02    3.09000000E-02
  1.69000000E+03    2.27300916E-08    4.74446771E+01    9.00000000E-03   -1.64285252E-12    8.89843754E-13   -5.91477216E+02    3.09000000E-02
  1.70000000E+03    2.27300916E-08    4.74446746E+01    9.00000000E-03   -1.64285252E-12    8.89843754E-13   -5.91477216E+02    3.09000000E-02
  1.71000000E+03    2.27300916E-08    4.74446720E+01    9.00000000E-03   -1.64285252E-12    8.89843754E-13   -5.91477216E+02    3.09000000E-02
  1.72000000E+03    2.27300916E-08    4.74446692E+01    9.00000000E-03   -1.64285252E-12    8.89843754E-13   -5.98358836E+02    3.09000000E-02
  1.73000000E+03    2.27300916E-08    4.74446663E+01    9.00000000E-03   -1.64285252E-12    8.89843754E-13   -5.98358836E+02    3.09000000E-02
  1.74000000E+03    2.27300916E-08    4.74446632E+01    9.00000000E-03   -1.64285252E-12    8.89843754E-13   -5.98358836E+02    3.09000000E-02
  1.75000000E+03    2.27300916E-08    4.74446600E+01    9.00000000E-03   -1.64285252E-12    8.89843754E-13   -5.98358836E+02    3.09000000E-02
  1.76000000E+03    2.27300916E-08    4.74446567E+01    9.00000000E-03   -1.64285252E-12    8.89843754E-13   -5.98358836E+02    3.09000000E-02
  1.77000000E+03    2.27300916E-08    4.74446532E+01    9.00000000E-03   -1.64285252E-12    8.89843754E-13   -5.98358836E+02    3.09000000E-02
  1.78000000E+03    2.27300916E-08    4.74446495E+01    9.00000000E-03   -1.64285252E-12    8.89843754E-13   -5.98358836E+02    3.09000000E-02
  1.79000000E+03    2.27300916E-08    4.74446457E+01    9.00000000E-03   -1.64285252E-12    8.89843754E-13   -5.98358836E+02    3.09000000E-02
  1.80000000E+03    2.27300916E-08    4.74446417E+01    9.00000000E-03   -1.64285252E-12    8.89843754E-13   -5.98358836E+02    3.09000000E-02
  1.81000000E+03    2.27300916E-08    4.74446375E+01    9.00000000E-03   -1.64285252E-12    8.89843754E-13   -5.98358836E+02    3.09000000E-02
  1.82000000E+03    2.27300916E-08    4.74446332E+01    9.00000000E-03   -1.64285252E-12    8.89843754E-13   -6.53210102E+02    3.09000000E-02
  1.83000000E+03    2.27300916E-08    4.74446286E+01    9.00000000E-03   -1.64285252E-12    8.89843754E-13   -6.53210102E+02    3.09000000E-02
  1.84000000E+03    2.27300916E-08    4.74446239E+01    9.00000000E-03   -1.64285252E-12    8.89843754E-13   -6.53210102E+02    3.09000000E-02
  1.85000000E+03    2.27300916E-08    4.74446189E+01    9.00000000E-03   -1.64285252E-12    8.89843754E-13   -6.53210102E+02    3.09000000E-02
  1.86000000E+03    2.27300916E-08    4.74446138E+01    9.00000000E-03   -1.64285252E-12    8.89843754E-13   -6.53210102E+02    3.09000000E-02
  1.87000000E+03    2.27300916E-08    4.74446085E+01    9.00000000E-03   -1.64285252E-12    8.89843754E-13   -6.53210102E+02    3.09000000E-02
  1.88000000E+03    2.27300916E-08    4.74446029E+01    9.00000000E-03   -1.64285252E-12    8.89843754E-13   -6.53210102E+02    3.09000000E-02
  1.89000000E+03    2.27300916E-08    4.74445971E+01    9.00000000E-03   -1.64285252E-12    8.89843754E-13   -6.53210102E+02    3.09000000E-02
  1.90000000E+03    2.27300916E-08    4.74445911E+01    9.00000000E-03   -1.64285252E-12    8.89843754E-13   -6.53210102E+02    3.09000000E-02
  1.91000000E+03    2.27300916E-08    4.74445848E+01    9.00000000E-03   -1.64285252E-12    8.89843754E-13   -6.53210102E+02    3.09000000E-02
  1.92000000E+03    2.27300916E-08    4.74445784E+01    9.00000000E-03   -1.64285252E-12    8.89843754E-13   -6.88612733E+02    3.09000000E-02
  1.93000000E+03    2.27300916E-08    4.74445716E+01    9.00000000E-03   -1.64285252E-12    8.89843754E-13   -6.88612733E+02    3.09000000E-02
  1.94000000E+03    2.27300916E-08    4.74445646E+01    9.00000000E-03   -1.64285252E-12    8.89843754E-13   -6.88612733E+02    3.09000000E-02
  1.95000000E+03    2.27300916E-08    4.74445574E+01    9.00000000E-03   -1.64285252E-12    8.89843754E-13   -6.88612733E+02    3.09000000E-02
  1.96000000E+03    2.27300916E-08    4.74445499E+01    9.00000000E-03   -1.64285252E-12    8.89843754E-13   -6.88612733E+02    3.09000000E-02
  1.97000000E+03    2.27300916E-08    4.74445421E+01    9.00000000E-03   -1.64285252E-12    8.89843754E-13   -6.88612733E+02    3.09000000E-02
  1.98000000E+03    2.27300916E-08    4.74445340E+01    9.00000000E-03   -1.64285252E-12    8.89843754E-13   -6.88612733E+02    3.09000000E-02
  1.99000000E+03    2.27300916E-08    4.74445257E+01    9.00000000E-03   -1.64285252E-12    8.89843754E-13   -6.88612733E+02    3.09000000E-02
  2.00000000E+03    2.27300916E-08    4.74445170E+01    9.00000000E-03   -1.64285252E-12    8.89843754E-13   -6.88612733E+02    3.09000000E-02
  2.01000000E+03    2.27300916E-08    4.74445081E+01    9.00000000E-03   -1.64285252E-12    8.89843754E-13   -6.88612733E+02    3.09000000E-02
  2.02000000E+03    2.27300916E-08    4.74444988E+01    9.00000000E-03   -1.64285252E-12    8.89843754E-13   -7.01057118E+02    3.09000000E-02
  2.03000000E+03    2.27300916E-08    4.74444893E+01    9.00000000E-03   -1.64285252E-12    8.89843754E-13   -7.01057118E+02    3.09000000E-02
  2.04000000E+03    2.27300916E-08    4.74444794E+01    9.00000000E-03   -1.64285252E-12    8.89843754E-13   -7.01057118E+02    3.09000000E-02
  2.05000000E+03    2.27300916E-08    4.74444691E+01    9.00000000E-03   -1.64285252E-12    8.89843754E-13   -7.01057118E+02    3.09000000E-02
  2.06000000E+03    2.27300916E-08    4.74444586E+01    9.00000000E-03   -1.64285252E-12    8.89843754E-13   -7.01057118E+02    3.09000000E-02
  2.07000000E+03    2.27300916E-08    4.74444477E+01    9.00000000E-03   -1.64285252E-12    8.89843754E-13   -7.01057118E+02    3.09000000E-02
  2.08000000E+03    2.27300916E-08    4.74444364E+01    9.00000000E-03   -1.64285252E-12    8.89843754E-13   -7.01057118E+02    3.09000000E-02
  2.09000000E+03    2.27300916E-08    4.74444248E+01    9.00000000E-03   -1.64285252E-12    8.89843754E-13   -7.01057118E+02    3.09000000E-02