 title = "surface data"
 variables = "x (m)","jz (mw/m*m)",                       "qx(m/yr)", "qz(m/yr)"
 zone f="point",i=  101
   0.000000000000000  0.000000000000000  1.502929161311223E-004  4.005693057937062E-007 -2.372978059994590E-005
   16000.0000000000  0.000000000000000  1.589848827654462E-004  2.744407822036828E-007  1.807781702112266E-010
   32000.0000000000  0.000000000000000  7.514658534308443E-005  2.824665143712907E-013  4.519492419197135E-011
   48000.0000000000  0.000000000000000  1.589849158266311E-004  0.000000000000000 -2.775557561562891E-016
   64000.0000000000  0.000000000000000  7.514658947582655E-005  0.000000000000000 -1.387778780781446E-016
   80000.0000000000  0.000000000000000  1.589849158266311E-004  0.000000000000000 -2.775557561562891E-016
   96000.0000000000  0.000000000000000  7.514658947582655E-005  0.000000000000000 -1.387778780781446E-016
   112000.000000000  0.000000000000000  1.589849158266311E-004  0.000000000000000 -2.775557561562891E-016
   128000.000000000  0.000000000000000  7.514658947583075E-005  0.000000000000000 -1.387778780781446E-016
   144000.000000000  0.000000000000000  1.589849158266647E-004  0.000000000000000 -2.775557561562891E-016
   160000.000000000  0.000000000000000  7.533794371797387E-005 -1.490777987167569E-018  1.214306433183765E-016
   176000.000000000  0.000000000000000  1.573107558716127E-004  0.000000000000000  1.424901863167349E-013
   192000.000000000  0.000000000000000  7.117210413729709E-005  5.204170427930421E-016 -3.663735981263017E-014
   208000.000000000  0.000000000000000  1.461628251729657E-004  0.000000000000000 -3.108624468950438E-014
   224000.000000000  0.000000000000000  6.880671684279924E-005 -1.894318035766673E-014 -6.772360450213455E-014
   240000.000000000  0.000000000000000  1.385326103454700E-004  0.000000000000000  9.237055564881302E-013
   256000.000000000  0.000000000000000  5.860077921478022E-005  1.154631945610163E-013 -4.547473508864641E-012
   272000.000000000  0.000000000000000  1.207062559517939E-004  0.000000000000000 -5.258016244624741E-012
   288000.000000000  0.000000000000000  6.408745662467184E-005  3.146788385421928E-014 -2.183253577925370E-012
   304000.000000000  0.000000000000000  1.461627909965358E-004  0.000000000000000 -1.389999226830696E-012
   320000.000000000  0.000000000000000  6.420997733531872E-005  4.440892098500626E-014 -4.938272013532696E-012
   336000.000000000  0.000000000000000  1.213469142670437E-004  0.000000000000000 -9.379164112033322E-012
   352000.000000000  0.000000000000000  5.868086222833448E-005 -4.440892098500626E-015 -5.400124791776761E-012
   368000.000000000  0.000000000000000  1.385326102956900E-004  0.000000000000000 -1.973976537783528E-012
   384000.000000000  0.000000000000000  6.880671711463521E-005  1.370431546021678E-014 -6.777911565336581E-013
   400000.000000000  0.000000000000000  1.461628274012877E-004  0.000000000000000 -9.880984919163893E-013
   416000.000000000  0.000000000000000  6.880671711453276E-005 -2.543451560477195E-013 -4.808931031163866E-012
   432000.000000000  0.000000000000000  1.385326102955935E-004  0.000000000000000 -1.634248292248230E-012
   448000.000000000  0.000000000000000  5.868086222912938E-005  0.000000000000000 -1.989519660128281E-012
   464000.000000000  0.000000000000000  1.213469142676771E-004  0.000000000000000 -1.705302565824240E-012
   480000.000000000  0.000000000000000  6.420997727861579E-005  1.949829186997931E-014 -9.126033262418787E-013
   496000.000000000  0.000000000000000  1.461627905418769E-004  0.000000000000000 -5.850875339774575E-013
   512000.000000000  0.000000000000000  6.408745192201504E-005 -3.108624468950438E-014 -1.136868377216160E-012
   528000.000000000  0.000000000000000  1.207062559525848E-004  0.000000000000000 -5.684341886080801E-013
   544000.000000000  0.000000000000000  5.860077927690490E-005 -3.330669073875470E-014  1.012523398458143E-012
   560000.000000000  0.000000000000000  1.385326103461155E-004  0.000000000000000  1.831867990631508E-013
   576000.000000000  0.000000000000000  6.880694636607284E-005  1.734723475976807E-016 -4.996003610813204E-015
   592000.000000000  0.000000000000000  1.461646600388470E-004  0.000000000000000  0.000000000000000
   608000.000000000  0.000000000000000  7.117493566308341E-005  6.938893903907228E-017 -1.110223024625157E-015
   624000.000000000  0.000000000000000  1.573147617526513E-004  0.000000000000000  0.000000000000000
   640000.000000000  0.000000000000000  7.533845466838494E-005  2.710505431213761E-019 -6.938893903907228E-017
   656000.000000000  0.000000000000000  1.589849158266650E-004  0.000000000000000 -2.775557561562891E-016
   672000.000000000  0.000000000000000  7.514658947583078E-005  0.000000000000000 -1.387778780781446E-016
   688000.000000000  0.000000000000000  1.589849158266311E-004  0.000000000000000 -2.775557561562891E-016
   704000.000000000  0.000000000000000  7.514658947582655E-005  0.000000000000000 -1.387778780781446E-016
   720000.000000000  0.000000000000000  1.589849158266311E-004  0.000000000000000 -2.775557561562891E-016
   736000.000000000  0.000000000000000  7.514658947582655E-005  0.000000000000000 -1.387778780781446E-016
   752000.000000000  0.000000000000000  1.589849158266311E-004  0.000000000000000 -2.775557561562891E-016
   768000.000000000  0.000000000000000  7.514658947582655E-005  0.000000000000000 -1.387778780781446E-016
   784000.000000000  0.000000000000000  1.589849158266311E-004  0.000000000000000 -2.775557561562891E-016
   800000.000000000  0.000000000000000  7.514658947582655E-005  0.000000000000000 -1.387778780781446E-016
   816000.000000000  0.000000000000000  1.589849158266311E-004  0.000000000000000 -2.775557561562891E-016
   832000.000000000  0.000000000000000  7.514658947582655E-005  0.000000000000000 -1.387778780781446E-016
   848000.000000000  0.000000000000000  1.589849158266311E-004  0.000000000000000 -2.775557561562891E-016
   864000.000000000  0.000000000000000  7.514658947582655E-005  0.000000000000000 -1.387778780781446E-016
   880000.000000000  0.000000000000000  1.589849158266311E-004  0.000000000000000 -2.775557561562891E-016
   896000.000000000  0.000000000000000  7.514658947582655E-005  0.000000000000000 -1.387778780781446E-016
   912000.000000000  0.000000000000000  1.589849158266311E-004  0.000000000000000 -2.775557561562891E-016
   928000.000000000  0.000000000000000  7.514658947582655E-005  0.000000000000000 -1.387778780781446E-016
   944000.000000000  0.000000000000000  1.589849158266311E-004  0.000000000000000 -2.775557561562891E-016
   960000.000000000  0.000000000000000  7.514658947582655E-005  0.000000000000000 -1.387778780781446E-016
   976000.000000000  0.000000000000000  1.589849158266311E-004  0.000000000000000 -2.775557561562891E-016
   992000.000000000  0.000000000000000  7.514658947582655E-005  0.000000000000000 -1.387778780781446E-016
   1008000.00000000  0.000000000000000  1.589849158266311E-004  0.000000000000000 -2.775557561562891E-016
   1024000.00000000  0.000000000000000  7.514658947582655E-005  0.000000000000000 -1.387778780781446E-016
   1040000.00000000  0.000000000000000  1.589849158266311E-004  0.000000000000000 -2.775557561562891E-016
   1056000.00000000  0.000000000000000  7.514658947582655E-005  0.000000000000000 -1.387778780781446E-016
   1072000.00000000  0.000000000000000  1.589849158266311E-004  0.000000000000000 -2.775557561562891E-016
   1088000.00000000  0.000000000000000  7.514658947582655E-005  0.000000000000000 -1.387778780781446E-016
   1104000.00000000  0.000000000000000  1.589849158266311E-004  0.000000000000000 -2.775557561562891E-016
   1120000.00000000  0.000000000000000  7.514658947582655E-005  0.000000000000000 -1.387778780781446E-016
   1136000.00000000  0.000000000000000  1.589849158266311E-004  0.000000000000000 -2.775557561562891E-016
   1152000.00000000  0.000000000000000  7.514658947582655E-005  0.000000000000000 -1.387778780781446E-016
   1168000.00000000  0.000000000000000  1.589849158266311E-004  0.000000000000000 -2.775557561562891E-016
   1184000.00000000  0.000000000000000  7.514658947582655E-005  0.000000000000000 -1.387778780781446E-016
   1200000.00000000  0.000000000000000  1.589849158266311E-004  0.000000000000000 -2.775557561562891E-016
   1216000.00000000  0.000000000000000  7.514658947582655E-005  0.000000000000000 -1.387778780781446E-016
   1232000.00000000  0.000000000000000  1.589849158266311E-004  0.000000000000000 -2.775557561562891E-016
   1248000.00000000  0.000000000000000  7.514658947582655E-005  0.000000000000000 -1.387778780781446E-016
   1264000.00000000  0.000000000000000  1.589849158266311E-004  0.000000000000000 -2.775557561562891E-016
   1280000.00000000  0.000000000000000  7.514658947582655E-005  0.000000000000000 -1.387778780781446E-016
   1296000.00000000  0.000000000000000  1.589849158266311E-004  0.000000000000000 -2.775557561562891E-016
   1312000.00000000  0.000000000000000  7.514658947582655E-005  0.000000000000000 -1.387778780781446E-016
   1328000.00000000  0.000000000000000  1.589849158266311E-004  0.000000000000000 -2.775557561562891E-016
   1344000.00000000  0.000000000000000  7.514658947582655E-005  0.000000000000000 -1.387778780781446E-016
   1360000.00000000  0.000000000000000  1.589849158266311E-004  0.000000000000000 -2.775557561562891E-016
   1376000.00000000  0.000000000000000  7.514658947582655E-005  0.000000000000000 -1.387778780781446E-016
   1392000.00000000  0.000000000000000  1.589849158266311E-004  0.000000000000000 -2.775557561562891E-016
   1408000.00000000  0.000000000000000  7.514658947582655E-005  0.000000000000000 -1.387778780781446E-016
   1424000.00000000  0.000000000000000  1.589849158266311E-004  0.000000000000000 -2.775557561562891E-016
   1440000.00000000  0.000000000000000  7.514658947582655E-005  0.000000000000000 -1.387778780781446E-016
   1456000.00000000  0.000000000000000  1.589849158266311E-004  0.000000000000000 -2.775557561562891E-016
   1472000.00000000  0.000000000000000  7.514658947582655E-005  0.000000000000000 -1.387778780781446E-016
   1488000.00000000  0.000000000000000  1.589849158266311E-004  0.000000000000000 -2.775557561562891E-016
   1504000.00000000  0.000000000000000  7.514658947582655E-005  0.000000000000000 -1.387778780781446E-016
   1520000.00000000  0.000000000000000  1.589849158266311E-004  0.000000000000000 -2.775557561562891E-016
   1536000.00000000  0.000000000000000  7.514658947582655E-005  0.000000000000000 -1.387778780781446E-016
   1552000.00000000  0.000000000000000  1.589849158266311E-004  0.000000000000000 -2.775557561562891E-016
   1568000.00000000  0.000000000000000  7.514658947582655E-005  0.000000000000000 -1.387778780781446E-016
   1584000.00000000  0.000000000000000  1.589849158266311E-004  0.000000000000000 -2.775557561562891E-016
   1600000.00000000  0.000000000000000  1.502931789516530E-004 -5.421010862427522E-019 -1.387778780781446E-016
 zone f="point",i=  101
   0.000000000000000  0.000000000000000  1.300369082735616E-004  8.373616671130931E-007 -4.166350135451774E-005
   16000.0000000000  0.000000000000000  1.394298313800355E-004  5.488815644068236E-007  7.325175882533230E-010
   32000.0000000000  0.000000000000000  6.501874953869140E-005  1.144559029801415E-012  1.831327971213437E-010
   48000.0000000000  0.000000000000000  1.394299277147750E-004  0.000000000000000 -2.775557561562891E-016
   64000.0000000000  0.000000000000000  6.501876158094304E-005  0.000000000000000 -1.387778780781446E-016
   80000.0000000000  0.000000000000000  1.394299277147750E-004  0.000000000000000 -2.775557561562891E-016
   96000.0000000000  0.000000000000000  6.501876158094304E-005  0.000000000000000 -1.387778780781446E-016
   112000.000000000  0.000000000000000  1.394299277147750E-004  0.000000000000000 -2.775557561562891E-016
   128000.000000000  0.000000000000000  6.501876158096414E-005  0.000000000000000 -1.387778780781446E-016
   144000.000000000  0.000000000000000  1.394299277149439E-004  0.000000000000000 -2.775557561562891E-016
   160000.000000000  0.000000000000000  6.528920156761040E-005 -1.490777987167569E-018  1.214306433183765E-016
   176000.000000000  0.000000000000000  1.387662364059959E-004  0.000000000000000  1.424901863167349E-013
   192000.000000000  0.000000000000000  6.250178408967673E-005  8.326672684688674E-016 -4.607425552194400E-014
   208000.000000000  0.000000000000000  1.318556972591406E-004  0.000000000000000 -5.107025913275720E-014
   224000.000000000  0.000000000000000  6.033750195755937E-005 -2.029626466892864E-014 -9.159339953157541E-014
   240000.000000000  0.000000000000000  1.207684247310353E-004  0.000000000000000  9.237055564881302E-013
   256000.000000000  0.000000000000000  4.961300432735651E-005  1.243449787580175E-013 -4.831690603168681E-012
   272000.000000000  0.000000000000000  9.894344867973798E-005  0.000000000000000 -5.755396159656812E-012
   288000.000000000  0.000000000000000  5.497340023956871E-005  6.408068520258325E-014 -2.898237205783971E-012
   304000.000000000  0.000000000000000  1.318556153594116E-004  0.000000000000000 -1.756372824956998E-012
   320000.000000000  0.000000000000000  5.535913003832970E-005  1.776356839400250E-014 -5.364597654988756E-012
   336000.000000000  0.000000000000000  1.007251203981465E-004  0.000000000000000 -9.663381206337363E-012
   352000.000000000  0.000000000000000  4.983571723091544E-005  3.774758283725532E-014 -6.039613253960852E-012
   368000.000000000  0.000000000000000  1.207684209779544E-004  0.000000000000000 -2.778888230636767E-012
   384000.000000000  0.000000000000000  6.033750215916876E-005  2.033095913844818E-014 -9.969802761133906E-013
   400000.000000000  0.000000000000000  1.318557029555009E-004  0.000000000000000 -1.458833054357456E-012
   416000.000000000  0.000000000000000  6.033750215900645E-005 -2.874783744388765E-013 -5.508926648190027E-012
   432000.000000000  0.000000000000000  1.207684209777691E-004  0.000000000000000 -1.989519660128281E-012
   448000.000000000  0.000000000000000  4.983571736349344E-005 -4.440892098500626E-015 -2.202682480856311E-012
   464000.000000000  0.000000000000000  1.007251203997768E-004  0.000000000000000 -1.705302565824240E-012
   480000.000000000  0.000000000000000  5.535912799414811E-005  2.955968803064479E-014 -1.082467449009528E-012
   496000.000000000  0.000000000000000  1.318555990038446E-004  0.000000000000000 -9.869882688917642E-013
   512000.000000000  0.000000000000000  5.497326135026575E-005 -5.773159728050814E-014 -1.332267629550188E-012
   528000.000000000  0.000000000000000  9.894344868943469E-005  0.000000000000000 -5.684341886080801E-013
   544000.000000000  0.000000000000000  4.961301025006758E-005 -3.330669073875470E-014  1.012523398458143E-012
   560000.000000000  0.000000000000000  1.207684247857511E-004  0.000000000000000  1.831867990631508E-013
   576000.000000000  0.000000000000000  6.033870210984028E-005  1.734723475976807E-016 -6.106226635438361E-015
   592000.000000000  0.000000000000000  1.318652670536956E-004  0.000000000000000  0.000000000000000
   608000.000000000  0.000000000000000  6.251585295496294E-005  6.938893903907228E-017 -1.110223024625157E-015
   624000.000000000  0.000000000000000  1.387854646953451E-004  0.000000000000000  0.000000000000000
   640000.000000000  0.000000000000000  6.529165418011348E-005  2.710505431213761E-019 -6.938893903907228E-017
   656000.000000000  0.000000000000000  1.394299277149469E-004  0.000000000000000 -2.775557561562891E-016
   672000.000000000  0.000000000000000  6.501876158096453E-005  0.000000000000000 -1.387778780781446E-016
   688000.000000000  0.000000000000000  1.394299277147750E-004  0.000000000000000 -2.775557561562891E-016
   704000.000000000  0.000000000000000  6.501876158094304E-005  0.000000000000000 -1.387778780781446E-016
   720000.000000000  0.000000000000000  1.394299277147750E-004  0.000000000000000 -2.775557561562891E-016
   736000.000000000  0.000000000000000  6.501876158094304E-005  0.000000000000000 -1.387778780781446E-016
   752000.000000000  0.000000000000000  1.394299277147750E-004  0.000000000000000 -2.775557561562891E-016
   768000.000000000  0.000000000000000  6.501876158094304E-005  0.000000000000000 -1.387778780781446E-016
   784000.000000000  0.000000000000000  1.394299277147750E-004  0.000000000000000 -2.775557561562891E-016
   800000.000000000  0.000000000000000  6.501876158094304E-005  0.000000000000000 -1.387778780781446E-016
   816000.000000000  0.000000000000000  1.394299277147750E-004  0.000000000000000 -2.775557561562891E-016
   832000.000000000  0.000000000000000  6.501876158094304E-005  0.000000000000000 -1.387778780781446E-016
   848000.000000000  0.000000000000000  1.394299277147750E-004  0.000000000000000 -2.775557561562891E-016
   864000.000000000  0.000000000000000  6.501876158094304E-005  0.000000000000000 -1.387778780781446E-016
   880000.000000000  0.000000000000000  1.394299277147750E-004  0.000000000000000 -2.775557561562891E-016
   896000.000000000  0.000000000000000  6.501876158094304E-005  0.000000000000000 -1.387778780781446E-016
   912000.000000000  0.000000000000000  1.394299277147750E-004  0.000000000000000 -2.775557561562891E-016
   928000.000000000  0.000000000000000  6.501876158094304E-005  0.000000000000000 -1.387778780781446E-016
   944000.000000000  0.000000000000000  1.394299277147750E-004  0.000000000000000 -2.775557561562891E-016
   960000.000000000  0.000000000000000  6.501876158094304E-005  0.000000000000000 -1.387778780781446E-016
   976000.000000000  0.000000000000000  1.394299277147750E-004  0.000000000000000 -2.775557561562891E-016
   992000.000000000  0.000000000000000  6.501876158094304E-005  0.000000000000000 -1.387778780781446E-016
   1008000.00000000  0.000000000000000  1.394299277147750E-004  0.000000000000000 -2.775557561562891E-016
   1024000.00000000  0.000000000000000  6.501876158094304E-005  0.000000000000000 -1.387778780781446E-016
   1040000.00000000  0.000000000000000  1.394299277147750E-004  0.000000000000000 -2.775557561562891E-016
   1056000.00000000  0.000000000000000  6.501876158094304E-005  0.000000000000000 -1.387778780781446E-016
   1072000.00000000  0.000000000000000  1.394299277147750E-004  0.000000000000000 -2.775557561562891E-016
   1088000.00000000  0.000000000000000  6.501876158094304E-005  0.000000000000000 -1.387778780781446E-016
   1104000.00000000  0.000000000000000  1.394299277147750E-004  0.000000000000000 -2.775557561562891E-016
   1120000.00000000  0.000000000000000  6.501876158094304E-005  0.000000000000000 -1.387778780781446E-016
   1136000.00000000  0.000000000000000  1.394299277147750E-004  0.000000000000000 -2.775557561562891E-016
   1152000.00000000  0.000000000000000  6.501876158094304E-005  0.000000000000000 -1.387778780781446E-016
   1168000.00000000  0.000000000000000  1.394299277147750E-004  0.000000000000000 -2.775557561562891E-016
   1184000.00000000  0.000000000000000  6.501876158094304E-005  0.000000000000000 -1.387778780781446E-016
   1200000.00000000  0.000000000000000  1.394299277147750E-004  0.000000000000000 -2.775557561562891E-016
   1216000.00000000  0.000000000000000  6.501876158094304E-005  0.000000000000000 -1.387778780781446E-016
   1232000.00000000  0.000000000000000  1.394299277147750E-004  0.000000000000000 -2.775557561562891E-016
   1248000.00000000  0.000000000000000  6.501876158094304E-005  0.000000000000000 -1.387778780781446E-016
   1264000.00000000  0.000000000000000  1.394299277147750E-004  0.000000000000000 -2.775557561562891E-016
   1280000.00000000  0.000000000000000  6.501876158094304E-005  0.000000000000000 -1.387778780781446E-016
   1296000.00000000  0.000000000000000  1.394299277147750E-004  0.000000000000000 -2.775557561562891E-016
   1312000.00000000  0.000000000000000  6.501876158094304E-005  0.000000000000000 -1.387778780781446E-016
   1328000.00000000  0.000000000000000  1.394299277147750E-004  0.000000000000000 -2.775557561562891E-016
   1344000.00000000  0.000000000000000  6.501876158094304E-005  0.000000000000000 -1.387778780781446E-016
   1360000.00000000  0.000000000000000  1.394299277147750E-004  0.000000000000000 -2.775557561562891E-016
   1376000.00000000  0.000000000000000  6.501876158094304E-005  0.000000000000000 -1.387778780781446E-016
   1392000.00000000  0.000000000000000  1.394299277147750E-004  0.000000000000000 -2.775557561562891E-016
   1408000.00000000  0.000000000000000  6.501876158094304E-005  0.000000000000000 -1.387778780781446E-016
   1424000.00000000  0.000000000000000  1.394299277147750E-004  0.000000000000000 -2.775557561562891E-016
   1440000.00000000  0.000000000000000  6.501876158094304E-005  0.000000000000000 -1.387778780781446E-016
   1456000.00000000  0.000000000000000  1.394299277147750E-004  0.000000000000000 -2.775557561562891E-016
   1472000.00000000  0.000000000000000  6.501876158094304E-005  0.000000000000000 -1.387778780781446E-016
   1488000.00000000  0.000000000000000  1.394299277147750E-004  0.000000000000000 -2.775557561562891E-016
   1504000.00000000  0.000000000000000  6.501876158094304E-005  0.000000000000000 -1.387778780781446E-016
   1520000.00000000  0.000000000000000  1.394299277147750E-004  0.000000000000000 -2.775557561562891E-016
   1536000.00000000  0.000000000000000  6.501876158094304E-005  0.000000000000000 -1.387778780781446E-016
   1552000.00000000  0.000000000000000  1.394299277147750E-004  0.000000000000000 -2.775557561562891E-016
   1568000.00000000  0.000000000000000  6.501876158094304E-005  0.000000000000000 -1.387778780781446E-016
   1584000.00000000  0.000000000000000  1.394299277147750E-004  0.000000000000000 -2.775557561562891E-016
   1600000.00000000  0.000000000000000  1.300375231618861E-004 -5.421010862427522E-019 -1.387778780781446E-016
 zone f="point",i=  101
   0.000000000000000  0.000000000000000  1.174206258223733E-004  5.695689370228333E-007 -1.060964975013040E-004
   16000.0000000000  0.000000000000000  1.254216498788739E-004  8.233223466105065E-007 -9.880248416728465E-005
   32000.0000000000  0.000000000000000  5.871081722899318E-005  3.613652049178127E-007 -2.470039566365017E-005
   48000.0000000000  0.000000000000000  1.254223032934128E-004  0.000000000000000  6.245004513516506E-016
   64000.0000000000  0.000000000000000  5.871089837065644E-005  1.490777987167569E-018  8.673617379884035E-017
   80000.0000000000  0.000000000000000  1.254223032932847E-004  0.000000000000000 -2.775557561562891E-016
   96000.0000000000  0.000000000000000  5.871089837064044E-005  0.000000000000000 -1.387778780781446E-016
   112000.000000000  0.000000000000000  1.254223032932847E-004  0.000000000000000 -2.775557561562891E-016
   128000.000000000  0.000000000000000  5.871089837069113E-005  0.000000000000000 -1.387778780781446E-016
   144000.000000000  0.000000000000000  1.254223032936903E-004  0.000000000000000 -2.775557561562891E-016
   160000.000000000  0.000000000000000  5.900888709007986E-005 -1.490777987167569E-018  1.214306433183765E-016
   176000.000000000  0.000000000000000  1.252542571349101E-004  0.000000000000000  1.424901863167349E-013
   192000.000000000  0.000000000000000  5.676152063453467E-005  1.040834085586084E-015 -4.940492459581947E-014
   208000.000000000  0.000000000000000  1.207868042117583E-004  0.000000000000000 -6.439293542825908E-014
   224000.000000000  0.000000000000000  5.472931487465400E-005 -2.050443148604586E-014 -9.492406860545088E-014
   240000.000000000  0.000000000000000  1.082626988747903E-004  0.000000000000000  9.237055564881302E-013
   256000.000000000  0.000000000000000  4.449958740234797E-005  1.243449787580175E-013 -4.831690603168681E-012
   272000.000000000  0.000000000000000  8.665695453142794E-005  0.000000000000000 -5.755396159656812E-012
   288000.000000000  0.000000000000000  4.963187692689180E-005  8.364836601160164E-014 -3.231304113171518E-012
   304000.000000000  0.000000000000000  1.207866788912475E-004  0.000000000000000 -1.976196983832779E-012
   320000.000000000  0.000000000000000  5.028112070023536E-005  6.661338147750939E-015 -5.613287612504791E-012
   336000.000000000  0.000000000000000  8.940314890637881E-005  0.000000000000000 -9.663381206337363E-012
   352000.000000000  0.000000000000000  4.484286676725919E-005  5.551115123125783E-014 -6.181721801112872E-012
   368000.000000000  0.000000000000000  1.082626504855450E-004  0.000000000000000 -3.070876886113183E-012
   384000.000000000  0.000000000000000  5.472930939344833E-005  2.286365541337432E-014 -1.117439474285220E-012
   400000.000000000  0.000000000000000  1.207868135318640E-004  0.000000000000000 -1.636468738297481E-012
   416000.000000000  0.000000000000000  5.472930939325920E-005 -3.021194405761207E-013 -5.772049505026189E-012
   432000.000000000  0.000000000000000  1.082626504853328E-004  0.000000000000000 -2.131628207280301E-012
   448000.000000000  0.000000000000000  4.484286966376733E-005 -4.440892098500626E-015 -2.486899575160351E-012
   464000.000000000  0.000000000000000  8.940314893522917E-005  0.000000000000000 -1.989519660128281E-012
   480000.000000000  0.000000000000000  5.028110412567008E-005  3.410466353770403E-014 -1.230682222796986E-012
   496000.000000000  0.000000000000000  1.207865462670543E-004  0.000000000000000 -1.243449787580175E-012
   512000.000000000  0.000000000000000  4.963093689761884E-005 -7.327471962526033E-014 -1.456612608308205E-012
   528000.000000000  0.000000000000000  8.665695455862892E-005  0.000000000000000 -5.684341886080801E-013
   544000.000000000  0.000000000000000  4.449966709632804E-005 -3.330669073875470E-014  1.012523398458143E-012
   560000.000000000  0.000000000000000  1.082626998054607E-004  0.000000000000000  1.831867990631508E-013
   576000.000000000  0.000000000000000  5.473228267234528E-005  1.734723475976807E-016 -1.054711873393899E-014
   592000.000000000  0.000000000000000  1.208103482210156E-004  0.000000000000000  0.000000000000000
   608000.000000000  0.000000000000000  5.679476143433491E-005  6.938893903907228E-017 -1.110223024625157E-015
   624000.000000000  0.000000000000000  1.252982262069372E-004  0.000000000000000  0.000000000000000
   640000.000000000  0.000000000000000  5.901449553639345E-005  2.710505431213761E-019 -6.938893903907228E-017
   656000.000000000  0.000000000000000  1.254223032937046E-004  0.000000000000000 -2.775557561562891E-016
   672000.000000000  0.000000000000000  5.871089837069293E-005  0.000000000000000 -1.387778780781446E-016
   688000.000000000  0.000000000000000  1.254223032932847E-004  0.000000000000000 -2.775557561562891E-016
   704000.000000000  0.000000000000000  5.871089837064044E-005  0.000000000000000 -1.387778780781446E-016
   720000.000000000  0.000000000000000  1.254223032932847E-004  0.000000000000000 -2.775557561562891E-016
   736000.000000000  0.000000000000000  5.871089837064044E-005  0.000000000000000 -1.387778780781446E-016
   752000.000000000  0.000000000000000  1.254223032932847E-004  0.000000000000000 -2.775557561562891E-016
   768000.000000000  0.000000000000000  5.871089837064044E-005  0.000000000000000 -1.387778780781446E-016
   784000.000000000  0.000000000000000  1.254223032932847E-004  0.000000000000000 -2.775557561562891E-016
   800000.000000000  0.000000000000000  5.871089837064044E-005  0.000000000000000 -1.387778780781446E-016
   816000.000000000  0.000000000000000  1.254223032932847E-004  0.000000000000000 -2.775557561562891E-016
   832000.000000000  0.000000000000000  5.871089837064044E-005  0.000000000000000 -1.387778780781446E-016
   848000.000000000  0.000000000000000  1.254223032932847E-004  0.000000000000000 -2.775557561562891E-016
   864000.000000000  0.000000000000000  5.871089837064044E-005  0.000000000000000 -1.387778780781446E-016
   880000.000000000  0.000000000000000  1.254223032932847E-004  0.000000000000000 -2.775557561562891E-016
   896000.000000000  0.000000000000000  5.871089837064044E-005  0.000000000000000 -1.387778780781446E-016
   912000.000000000  0.000000000000000  1.254223032932847E-004  0.000000000000000 -2.775557561562891E-016
   928000.000000000  0.000000000000000  5.871089837064044E-005  0.000000000000000 -1.387778780781446E-016
   944000.000000000  0.000000000000000  1.254223032932847E-004  0.000000000000000 -2.775557561562891E-016
   960000.000000000  0.000000000000000  5.871089837064044E-005  0.000000000000000 -1.387778780781446E-016
   976000.000000000  0.000000000000000  1.254223032932847E-004  0.000000000000000 -2.775557561562891E-016
   992000.000000000  0.000000000000000  5.871089837064044E-005  0.000000000000000 -1.387778780781446E-016
   1008000.00000000  0.000000000000000  1.254223032932847E-004  0.000000000000000 -2.775557561562891E-016
   1024000.00000000  0.000000000000000  5.871089837064044E-005  0.000000000000000 -1.387778780781446E-016
   1040000.00000000  0.000000000000000  1.254223032932847E-004  0.000000000000000 -2.775557561562891E-016
   1056000.00000000  0.000000000000000  5.871089837064044E-005  0.000000000000000 -1.387778780781446E-016
   1072000.00000000  0.000000000000000  1.254223032932847E-004  0.000000000000000 -2.775557561562891E-016
   1088000.00000000  0.000000000000000  5.871089837064044E-005  0.000000000000000 -1.387778780781446E-016
   1104000.00000000  0.000000000000000  1.254223032932847E-004  0.000000000000000 -2.775557561562891E-016
   1120000.00000000  0.000000000000000  5.871089837064044E-005  0.000000000000000 -1.387778780781446E-016
   1136000.00000000  0.000000000000000  1.254223032932847E-004  0.000000000000000 -2.775557561562891E-016
   1152000.00000000  0.000000000000000  5.871089837064044E-005  0.000000000000000 -1.387778780781446E-016
   1168000.00000000  0.000000000000000  1.254223032932847E-004  0.000000000000000 -2.775557561562891E-016
   1184000.00000000  0.000000000000000  5.871089837064044E-005  0.000000000000000 -1.387778780781446E-016
   1200000.00000000  0.000000000000000  1.254223032932847E-004  0.000000000000000 -2.775557561562891E-016