 title = "surface data"
 variables = "x (m)","jz (mw/m*m)",                       "qx(m/yr)", "qz(m/yr)"
 zone f="point",i=  101
   0.000000000000000  0.000000000000000  1.502929161311223E-004  4.005693057937062E-007 -2.372978059994590E-005
   16000.0000000000  0.000000000000000  1.589848827654462E-004  2.744407822036828E-007  1.807781702112266E-010
   32000.0000000000  0.000000000000000  7.514658534308443E-005  2.824665143712907E-013  4.519492419197135E-011
   48000.0000000000  0.000000000000000  1.589849158266311E-004  0.000000000000000 -2.775557561562891E-016
   64000.0000000000  0.000000000000000  7.514658947582655E-005  0.000000000000000 -1.387778780781446E-016
   80000.0000000000  0.000000000000000  1.589849158266311E-004  0.000000000000000 -2.775557561562891E-016
   96000.0000000000  0.000000000000000  7.514658947582655E-005  0.000000000000000 -1.387778780781446E-016
   112000.000000000  0.000000000000000  1.589849158266311E-004  0.000000000000000 -2.775557561562891E-016
   128000.000000000  0.000000000000000  7.514658947583075E-005  0.000000000000000 -1.387778780781446E-016
   144000.000000000  0.000000000000000  1.589849158266647E-004  0.000000000000000 -2.775557561562891E-016
   160000.000000000  0.000000000000000  7.533794371804767E-005 -1.761828530288945E-018  1.387778780781446E-016
   176000.000000000  0.000000000000000  1.573107558721914E-004  0.000000000000000  1.602884491802570E-013
   192000.000000000  0.000000000000000  7.117210413746448E-005  6.245004513516506E-016 -9.436895709313831E-015
   208000.000000000  0.000000000000000  1.461628251730217E-004  0.000000000000000 -3.108624468950438E-014
   224000.000000000  0.000000000000000  6.880671684268165E-005  3.514549762329011E-014 -2.851607838749715E-012
   240000.000000000  0.000000000000000  1.385326103445778E-004  0.000000000000000 -1.023181539494544E-011
   256000.000000000  0.000000000000000  5.860077921341439E-005  1.243449787580175E-012 -4.945377440890297E-011
   272000.000000000  0.000000000000000  1.207062559438777E-004  0.000000000000000 -7.617018127348274E-011
   288000.000000000  0.000000000000000  6.408745793573918E-005  1.539254834703740E-012 -4.841460565785383E-011
   304000.000000000  0.000000000000000  1.461628015013218E-004  0.000000000000000  1.110223024625157E-015
   320000.000000000  0.000000000000000  6.693399148170459E-005 -2.131628207280301E-013 -1.705302565824240E-012
   336000.000000000  0.000000000000000  1.320581966429025E-004  0.000000000000000  1.136868377216160E-011
   352000.000000000  0.000000000000000  6.001976711329093E-005  2.522426711948356E-012 -5.087485988042317E-011
   368000.000000000  0.000000000000000  1.385326012663604E-004  0.000000000000000 -3.135602888448830E-011
   384000.000000000  0.000000000000000  6.880671575646524E-005  1.370431546021678E-014 -8.187894806610529E-013
   400000.000000000  0.000000000000000  1.461628274012844E-004  0.000000000000000 -1.061373211541650E-012
   416000.000000000  0.000000000000000  6.880671575622280E-005 -8.841538612358590E-013 -1.764810519944149E-011
   432000.000000000  0.000000000000000  1.385326012677003E-004  0.000000000000000 -1.023181539494544E-011
   448000.000000000  0.000000000000000  6.001976717729706E-005 -1.421085471520200E-013  6.821210263296962E-012
   464000.000000000  0.000000000000000  1.320581966445404E-004  0.000000000000000 -1.136868377216160E-012
   480000.000000000  0.000000000000000  6.693397090548084E-005  5.228456556594097E-014 -1.127431481506846E-012
   496000.000000000  0.000000000000000  1.461626368892114E-004  0.000000000000000  8.552047958687581E-012
   512000.000000000  0.000000000000000  6.408682525695212E-005  7.815970093361102E-013  9.379164112033322E-012
   528000.000000000  0.000000000000000  1.207062560137400E-004  0.000000000000000 -9.094947017729282E-012
   544000.000000000  0.000000000000000  5.860078307535518E-005  1.421085471520200E-013 -5.115907697472721E-012
   560000.000000000  0.000000000000000  1.385326103761549E-004  0.000000000000000 -4.560796185160143E-012
   576000.000000000  0.000000000000000  6.866890630535884E-005 -1.387778780781446E-016 -1.776356839400250E-014
   592000.000000000  0.000000000000000  1.483509361139706E-004  0.000000000000000 -1.443289932012704E-014
   608000.000000000  0.000000000000000  7.392345588345981E-005 -4.163336342344337E-016 -9.922618282587337E-015
   624000.000000000  0.000000000000000  1.589849237355895E-004  0.000000000000000  1.387778780781446E-016
   640000.000000000  0.000000000000000  7.514659046445759E-005  5.421010862427522E-019 -3.469446951953614E-017
   656000.000000000  0.000000000000000  1.589849158266311E-004  0.000000000000000 -2.775557561562891E-016
   672000.000000000  0.000000000000000  7.514658947582655E-005  0.000000000000000 -1.387778780781446E-016
   688000.000000000  0.000000000000000  1.589849158266311E-004  0.000000000000000 -2.775557561562891E-016
   704000.000000000  0.000000000000000  7.514658947582655E-005  0.000000000000000 -1.387778780781446E-016
   720000.000000000  0.000000000000000  1.589849158266311E-004  0.000000000000000 -2.775557561562891E-016
   736000.000000000  0.000000000000000  7.514658947582655E-005  0.000000000000000 -1.387778780781446E-016
   752000.000000000  0.000000000000000  1.589849158266311E-004  0.000000000000000 -2.775557561562891E-016
   768000.000000000  0.000000000000000  7.514658947582655E-005  0.000000000000000 -1.387778780781446E-016
   784000.000000000  0.000000000000000  1.589849158266311E-004  0.000000000000000 -2.775557561562891E-016
   800000.000000000  0.000000000000000  7.514658947582655E-005  0.000000000000000 -1.387778780781446E-016
   816000.000000000  0.000000000000000  1.589849158266311E-004  0.000000000000000 -2.775557561562891E-016
   832000.000000000  0.000000000000000  7.514658947582655E-005  0.000000000000000 -1.387778780781446E-016
   848000.000000000  0.000000000000000  1.589849158266311E-004  0.000000000000000 -2.775557561562891E-016
   864000.000000000  0.000000000000000  7.514658947582655E-005  0.000000000000000 -1.387778780781446E-016
   880000.000000000  0.000000000000000  1.589849158266311E-004  0.000000000000000 -2.775557561562891E-016
   896000.000000000  0.000000000000000  7.514658947582655E-005  0.000000000000000 -1.387778780781446E-016
   912000.000000000  0.000000000000000  1.589849158266311E-004  0.000000000000000 -2.775557561562891E-016
   928000.000000000  0.000000000000000  7.514658947582655E-005  0.000000000000000 -1.387778780781446E-016
   944000.000000000  0.000000000000000  1.589849158266311E-004  0.000000000000000 -2.775557561562891E-016
   960000.000000000  0.000000000000000  7.514658947582655E-005  0.000000000000000 -1.387778780781446E-016
   976000.000000000  0.000000000000000  1.589849158266311E-004  0.000000000000000 -2.775557561562891E-016
   992000.000000000  0.000000000000000  7.514658947582655E-005  0.000000000000000 -1.387778780781446E-016
   1008000.00000000  0.000000000000000  1.589849158266311E-004  0.000000000000000 -2.775557561562891E-016
   1024000.00000000  0.000000000000000  7.514658947582655E-005  0.000000000000000 -1.387778780781446E-016
   1040000.00000000  0.000000000000000  1.589849158266311E-004  0.000000000000000 -2.775557561562891E-016
   1056000.00000000  0.000000000000000  7.514658947582655E-005  0.000000000000000 -1.387778780781446E-016
   1072000.00000000  0.000000000000000  1.589849158266311E-004  0.000000000000000 -2.775557561562891E-016
   1088000.00000000  0.000000000000000  7.514658947582655E-005  0.000000000000000 -1.387778780781446E-016
   1104000.00000000  0.000000000000000  1.589849158266311E-004  0.000000000000000 -2.775557561562891E-016
   1120000.00000000  0.000000000000000  7.514658947582655E-005  0.000000000000000 -1.387778780781446E-016
   1136000.00000000  0.000000000000000  1.589849158266311E-004  0.000000000000000 -2.775557561562891E-016
   1152000.00000000  0.000000000000000  7.514658947582655E-005  0.000000000000000 -1.387778780781446E-016
   1168000.00000000  0.000000000000000  1.589849158266311E-004  0.000000000000000 -2.775557561562891E-016
   1184000.00000000  0.000000000000000  7.514658947582655E-005  0.000000000000000 -1.387778780781446E-016
   1200000.00000000  0.000000000000000  1.589849158266311E-004  0.000000000000000 -2.775557561562891E-016
   1216000.00000000  0.000000000000000  7.514658947582655E-005  0.000000000000000 -1.387778780781446E-016
   1232000.00000000  0.000000000000000  1.589849158266311E-004  0.000000000000000 -2.775557561562891E-016
   1248000.00000000  0.000000000000000  7.514658947582655E-005  0.000000000000000 -1.387778780781446E-016
   1264000.00000000  0.000000000000000  1.589849158266311E-004  0.000000000000000 -2.775557561562891E-016
   1280000.00000000  0.000000000000000  7.514658947582655E-005  0.000000000000000 -1.387778780781446E-016
   1296000.00000000  0.000000000000000  1.589849158266311E-004  0.000000000000000 -2.775557561562891E-016
   1312000.00000000  0.000000000000000  7.514658947582655E-005  0.000000000000000 -1.387778780781446E-016
   1328000.00000000  0.000000000000000  1.589849158266311E-004  0.000000000000000 -2.775557561562891E-016
   1344000.00000000  0.000000000000000  7.514658947582655E-005  0.000000000000000 -1.387778780781446E-016
   1360000.00000000  0.000000000000000  1.589849158266311E-004  0.000000000000000 -2.775557561562891E-016
   1376000.00000000  0.000000000000000  7.514658947582655E-005  0.000000000000000 -1.387778780781446E-016
   1392000.00000000  0.000000000000000  1.589849158266311E-004  0.000000000000000 -2.775557561562891E-016
   1408000.00000000  0.000000000000000  7.514658947582655E-005  0.000000000000000 -1.387778780781446E-016
   1424000.00000000  0.000000000000000  1.589849158266311E-004  0.000000000000000 -2.775557561562891E-016
   1440000.00000000  0.000000000000000  7.514658947582655E-005  0.000000000000000 -1.387778780781446E-016
   1456000.00000000  0.000000000000000  1.589849158266311E-004  0.000000000000000 -2.775557561562891E-016
   1472000.00000000  0.000000000000000  7.514658947582655E-005  0.000000000000000 -1.387778780781446E-016
   1488000.00000000  0.000000000000000  1.589849158266311E-004  0.000000000000000 -2.775557561562891E-016
   1504000.00000000  0.000000000000000  7.514658947582655E-005  0.000000000000000 -1.387778780781446E-016
   1520000.00000000  0.000000000000000  1.589849158266311E-004  0.000000000000000 -2.775557561562891E-016
   1536000.00000000  0.000000000000000  7.514658947582655E-005  0.000000000000000 -1.387778780781446E-016
   1552000.00000000  0.000000000000000  1.589849158266311E-004  0.000000000000000 -2.775557561562891E-016
   1568000.00000000  0.000000000000000  7.514658947582655E-005  0.000000000000000 -1.387778780781446E-016
   1584000.00000000  0.000000000000000  1.589849158266311E-004  0.000000000000000 -2.775557561562891E-016
   1600000.00000000  0.000000000000000  1.502931789516530E-004 -5.421010862427522E-019 -1.387778780781446E-016
 zone f="point",i=  101
   0.000000000000000  0.000000000000000  1.300369082735616E-004  8.373616671130931E-007 -4.166350135451774E-005
   16000.0000000000  0.000000000000000  1.394298313800355E-004  5.488815644068236E-007  7.325175882533230E-010
   32000.0000000000  0.000000000000000  6.501874953869140E-005  1.144559029801415E-012  1.831327971213437E-010
   48000.0000000000  0.000000000000000  1.394299277147750E-004  0.000000000000000 -2.775557561562891E-016
   64000.0000000000  0.000000000000000  6.501876158094304E-005  0.000000000000000 -1.387778780781446E-016
   80000.0000000000  0.000000000000000  1.394299277147750E-004  0.000000000000000 -2.775557561562891E-016
   96000.0000000000  0.000000000000000  6.501876158094304E-005  0.000000000000000 -1.387778780781446E-016
   112000.000000000  0.000000000000000  1.394299277147750E-004  0.000000000000000 -2.775557561562891E-016
   128000.000000000  0.000000000000000  6.501876158096414E-005  0.000000000000000 -1.387778780781446E-016
   144000.000000000  0.000000000000000  1.394299277149439E-004  0.000000000000000 -2.775557561562891E-016
   160000.000000000  0.000000000000000  6.528920157380196E-005 -1.761828530288945E-018  1.387778780781446E-016
   176000.000000000  0.000000000000000  1.387662364545346E-004  0.000000000000000  1.602884491802570E-013
   192000.000000000  0.000000000000000  6.250178410422760E-005  9.714451465470120E-016 -1.498801083243961E-014
   208000.000000000  0.000000000000000  1.318556972643729E-004  0.000000000000000 -5.329070518200751E-014
   224000.000000000  0.000000000000000  6.033750195804045E-005  3.479855292809475E-014 -2.857158953872840E-012
   240000.000000000  0.000000000000000  1.207684247297974E-004  0.000000000000000 -1.023181539494544E-011
   256000.000000000  0.000000000000000  4.961300445365852E-005  1.243449787580175E-012 -4.945377440890297E-011
   272000.000000000  0.000000000000000  9.894344866859212E-005  0.000000000000000 -7.617018127348274E-011
   288000.000000000  0.000000000000000  5.497340326090828E-005  1.557053097567263E-012 -4.841405054634151E-011
   304000.000000000  0.000000000000000  1.318556395522829E-004  0.000000000000000  1.110223024625157E-015
   320000.000000000  0.000000000000000  5.820817166123629E-005 -2.842170943040401E-013 -5.684341886080801E-013
   336000.000000000  0.000000000000000  1.126529995239499E-004  0.000000000000000  1.591615728102624E-011
   352000.000000000  0.000000000000000  5.132669839758340E-005  2.522426711948356E-012 -4.916955731459893E-011
   368000.000000000  0.000000000000000  1.207681573549915E-004  0.000000000000000 -3.021582983819826E-011
   384000.000000000  0.000000000000000  6.033746094932813E-005  1.294103713078698E-014 -7.643885524544203E-013
   400000.000000000  0.000000000000000  1.318557029556860E-004  0.000000000000000 -1.005862060310392E-012
   416000.000000000  0.000000000000000  6.033746094903439E-005 -8.478981405879438E-013 -1.649513858836826E-011
   432000.000000000  0.000000000000000  1.207681573570557E-004  0.000000000000000 -9.094947017729282E-012
   448000.000000000  0.000000000000000  5.132670432209610E-005 -1.421085471520200E-013  6.821210263296962E-012
   464000.000000000  0.000000000000000  1.126529995571414E-004  0.000000000000000 -1.136868377216160E-012
   480000.000000000  0.000000000000000  5.820788047595863E-005  5.228456556594097E-014 -1.127431481506846E-012
   496000.000000000  0.000000000000000  1.318533100424090E-004  0.000000000000000  8.552047958687581E-012
   512000.000000000  0.000000000000000  5.496679628104543E-005  7.815970093361102E-013  9.379164112033322E-012
   528000.000000000  0.000000000000000  9.894344886476603E-005  0.000000000000000 -9.094947017729282E-012
   544000.000000000  0.000000000000000  4.961316059713954E-005  1.421085471520200E-013 -5.115907697472721E-012
   560000.000000000  0.000000000000000  1.207684270881760E-004  0.000000000000000 -4.560796185160143E-012
   576000.000000000  0.000000000000000  6.012905977782025E-005  0.000000000000000 -2.109423746787797E-014
   592000.000000000  0.000000000000000  1.331413704827309E-004  0.000000000000000 -2.109423746787797E-014
   608000.000000000  0.000000000000000  6.441134530629121E-005 -8.318541168395033E-016 -9.818534874028728E-015
   624000.000000000  0.000000000000000  1.394299455147060E-004  0.000000000000000  1.387778780781446E-016
   640000.000000000  0.000000000000000  6.501876380598240E-005  5.421010862427522E-019 -3.469446951953614E-017
   656000.000000000  0.000000000000000  1.394299277147750E-004  0.000000000000000 -2.775557561562891E-016
   672000.000000000  0.000000000000000  6.501876158094304E-005  0.000000000000000 -1.387778780781446E-016
   688000.000000000  0.000000000000000  1.394299277147750E-004  0.000000000000000 -2.775557561562891E-016
   704000.000000000  0.000000000000000  6.501876158094304E-005  0.000000000000000 -1.387778780781446E-016
   720000.000000000  0.000000000000000  1.394299277147750E-004  0.000000000000000 -2.775557561562891E-016
   736000.000000000  0.000000000000000  6.501876158094304E-005  0.000000000000000 -1.387778780781446E-016
   752000.000000000  0.000000000000000  1.394299277147750E-004  0.000000000000000 -2.775557561562891E-016
   768000.000000000  0.000000000000000  6.501876158094304E-005  0.000000000000000 -1.387778780781446E-016
   784000.000000000  0.000000000000000  1.394299277147750E-004  0.000000000000000 -2.775557561562891E-016
   800000.000000000  0.000000000000000  6.501876158094304E-005  0.000000000000000 -1.387778780781446E-016
   816000.000000000  0.000000000000000  1.394299277147750E-004  0.000000000000000 -2.775557561562891E-016
   832000.000000000  0.000000000000000  6.501876158094304E-005  0.000000000000000 -1.387778780781446E-016
   848000.000000000  0.000000000000000  1.394299277147750E-004  0.000000000000000 -2.775557561562891E-016
   864000.000000000  0.000000000000000  6.501876158094304E-005  0.000000000000000 -1.387778780781446E-016
   880000.000000000  0.000000000000000  1.394299277147750E-004  0.000000000000000 -2.775557561562891E-016
   896000.000000000  0.000000000000000  6.501876158094304E-005  0.000000000000000 -1.387778780781446E-016
   912000.000000000  0.000000000000000  1.394299277147750E-004  0.000000000000000 -2.775557561562891E-016
   928000.000000000  0.000000000000000  6.501876158094304E-005  0.000000000000000 -1.387778780781446E-016
   944000.000000000  0.000000000000000  1.394299277147750E-004  0.000000000000000 -2.775557561562891E-016
   960000.000000000  0.000000000000000  6.501876158094304E-005  0.000000000000000 -1.387778780781446E-016
   976000.000000000  0.000000000000000  1.394299277147750E-004  0.000000000000000 -2.775557561562891E-016
   992000.000000000  0.000000000000000  6.501876158094304E-005  0.000000000000000 -1.387778780781446E-016
   1008000.00000000  0.000000000000000  1.394299277147750E-004  0.000000000000000 -2.775557561562891E-016
   1024000.00000000  0.000000000000000  6.501876158094304E-005  0.000000000000000 -1.387778780781446E-016
   1040000.00000000  0.000000000000000  1.394299277147750E-004  0.000000000000000 -2.775557561562891E-016
   1056000.00000000  0.000000000000000  6.501876158094304E-005  0.000000000000000 -1.387778780781446E-016
   1072000.00000000  0.000000000000000  1.394299277147750E-004  0.000000000000000 -2.775557561562891E-016
   1088000.00000000  0.000000000000000  6.501876158094304E-005  0.000000000000000 -1.387778780781446E-016
   1104000.00000000  0.000000000000000  1.394299277147750E-004  0.000000000000000 -2.775557561562891E-016
   1120000.00000000  0.000000000000000  6.501876158094304E-005  0.000000000000000 -1.387778780781446E-016
   1136000.00000000  0.000000000000000  1.394299277147750E-004  0.000000000000000 -2.775557561562891E-016
   1152000.00000000  0.000000000000000  6.501876158094304E-005  0.000000000000000 -1.387778780781446E-016
   1168000.00000000  0.000000000000000  1.394299277147750E-004  0.000000000000000 -2.775557561562891E-016
   1184000.00000000  0.000000000000000  6.501876158094304E-005  0.000000000000000 -1.387778780781446E-016
   1200000.00000000  0.000000000000000  1.394299277147750E-004  0.000000000000000 -2.775557561562891E-016
   1216000.00000000  0.000000000000000  6.501876158094304E-005  0.000000000000000 -1.387778780781446E-016
   1232000.00000000  0.000000000000000  1.394299277147750E-004  0.000000000000000 -2.775557561562891E-016
   1248000.00000000  0.000000000000000  6.501876158094304E-005  0.000000000000000 -1.387778780781446E-016
   1264000.00000000  0.000000000000000  1.394299277147750E-004  0.000000000000000 -2.775557561562891E-016
   1280000.00000000  0.000000000000000  6.501876158094304E-005  0.000000000000000 -1.387778780781446E-016
   1296000.00000000  0.000000000000000  1.394299277147750E-004  0.000000000000000 -2.775557561562891E-016
   1312000.00000000  0.000000000000000  6.501876158094304E-005  0.000000000000000 -1.387778780781446E-016
   1328000.00000000  0.000000000000000  1.394299277147750E-004  0.000000000000000 -2.775557561562891E-016
   1344000.00000000  0.000000000000000  6.501876158094304E-005  0.000000000000000 -1.387778780781446E-016
   1360000.00000000  0.000000000000000  1.394299277147750E-004  0.000000000000000 -2.775557561562891E-016
   1376000.00000000  0.000000000000000  6.501876158094304E-005  0.000000000000000 -1.387778780781446E-016
   1392000.00000000  0.000000000000000  1.394299277147750E-004  0.000000000000000 -2.775557561562891E-016
   1408000.00000000  0.000000000000000  6.501876158094304E-005  0.000000000000000 -1.387778780781446E-016
   1424000.00000000  0.000000000000000  1.394299277147750E-004  0.000000000000000 -2.775557561562891E-016
   1440000.00000000  0.000000000000000  6.501876158094304E-005  0.000000000000000 -1.387778780781446E-016
   1456000.00000000  0.000000000000000  1.394299277147750E-004  0.000000000000000 -2.775557561562891E-016
   1472000.00000000  0.000000000000000  6.501876158094304E-005  0.000000000000000 -1.387778780781446E-016
   1488000.00000000  0.000000000000000  1.394299277147750E-004  0.000000000000000 -2.775557561562891E-016
   1504000.00000000  0.000000000000000  6.501876158094304E-005  0.000000000000000 -1.387778780781446E-016
   1520000.00000000  0.000000000000000  1.394299277147750E-004  0.000000000000000 -2.775557561562891E-016
   1536000.00000000  0.000000000000000  6.501876158094304E-005  0.000000000000000 -1.387778780781446E-016
   1552000.00000000  0.000000000000000  1.394299277147750E-004  0.000000000000000 -2.775557561562891E-016
   1568000.00000000  0.000000000000000  6.501876158094304E-005  0.000000000000000 -1.387778780781446E-016
   1584000.00000000  0.000000000000000  1.394299277147750E-004  0.000000000000000 -2.775557561562891E-016
   1600000.00000000  0.000000000000000  1.300375231618861E-004 -5.421010862427522E-019 -1.387778780781446E-016
 zone f="point",i=  101
   0.000000000000000  0.000000000000000  1.174206258223733E-004  5.695689370228333E-007 -1.060964975013040E-004
   16000.0000000000  0.000000000000000  1.254216498788739E-004  8.233223466105065E-007 -9.880248416728465E-005
   32000.0000000000  0.000000000000000  5.871081722899318E-005  3.613652049178127E-007 -2.470039566365017E-005
   48000.0000000000  0.000000000000000  1.254223032934128E-004  0.000000000000000  6.245004513516506E-016
   64000.0000000000  0.000000000000000  5.871089837065644E-005  1.490777987167569E-018  8.673617379884035E-017
   80000.0000000000  0.000000000000000  1.254223032932847E-004  0.000000000000000 -2.775557561562891E-016
   96000.0000000000  0.000000000000000  5.871089837064044E-005  0.000000000000000 -1.387778780781446E-016
   112000.000000000  0.000000000000000  1.254223032932847E-004  0.000000000000000 -2.775557561562891E-016
   128000.000000000  0.000000000000000  5.871089837069113E-005  0.000000000000000 -1.387778780781446E-016
   144000.000000000  0.000000000000000  1.254223032936903E-004  0.000000000000000 -2.775557561562891E-016
   160000.000000000  0.000000000000000  5.900888717807813E-005 -1.761828530288945E-018  1.387778780781446E-016
   176000.000000000  0.000000000000000  1.252542578247510E-004  0.000000000000000  1.602884491802570E-013
   192000.000000000  0.000000000000000  5.676152084903210E-005  1.249000902703301E-015 -1.942890293094024E-014
   208000.000000000  0.000000000000000  1.207868042947961E-004  0.000000000000000 -7.105427357601002E-014
   224000.000000000  0.000000000000000  5.472931488553032E-005  3.452099717193846E-014 -2.861599845971341E-012
   240000.000000000  0.000000000000000  1.082626988789210E-004  0.000000000000000 -1.023181539494544E-011
   256000.000000000  0.000000000000000  4.449959016764323E-005  1.207922650792170E-012 -4.888534022029489E-011
   272000.000000000  0.000000000000000  8.665695451893983E-005  0.000000000000000 -7.389644451905042E-011
   288000.000000000  0.000000000000000  4.963188140460682E-005  1.574816665961265E-012 -4.784561635773343E-011
   304000.000000000  0.000000000000000  1.207867147633395E-004  0.000000000000000  1.110223024625157E-015
   320000.000000000  0.000000000000000  5.279234935172910E-005 -2.842170943040401E-013 -5.684341886080801E-013
   336000.000000000  0.000000000000000  1.002519633294078E-004  0.000000000000000  1.591615728102624E-011
   352000.000000000  0.000000000000000  4.619879478492464E-005  2.486899575160351E-012 -4.860112312599085E-011
   368000.000000000  0.000000000000000  1.082608738711280E-004  0.000000000000000 -2.907674101493285E-011
   384000.000000000  0.000000000000000  5.472902064509152E-005  1.266348137463069E-014 -7.421840919619171E-013
   400000.000000000  0.000000000000000  1.207868135314619E-004  0.000000000000000 -9.836575998178887E-013
   416000.000000000  0.000000000000000  5.472902064494543E-005 -8.475511958927484E-013 -1.648958747324514E-011
   432000.000000000  0.000000000000000  1.082608738747925E-004  0.000000000000000 -9.094947017729282E-012
   448000.000000000  0.000000000000000  4.619887457047644E-005 -1.421085471520200E-013  6.821210263296962E-012
   464000.000000000  0.000000000000000  1.002519640054237E-004  0.000000000000000 -1.136868377216160E-012
   480000.000000000  0.000000000000000  5.279105133782150E-005  3.455569164145800E-014 -8.415490526658687E-013
   496000.000000000  0.000000000000000  1.207763300771736E-004  0.000000000000000  9.121592370320286E-012
   512000.000000000  0.000000000000000  4.960894504062798E-005  8.526512829121202E-013  9.663381206337363E-012
   528000.000000000  0.000000000000000  8.665695389892900E-005  0.000000000000000 -9.094947017729282E-012
   544000.000000000  0.000000000000000  4.450075387828043E-005  1.421085471520200E-013 -5.115907697472721E-012
   560000.000000000  0.000000000000000  1.082627295667919E-004  0.000000000000000 -4.560796185160143E-012
   576000.000000000  0.000000000000000  5.448645858317676E-005  0.000000000000000 -2.109423746787797E-014
   592000.000000000  0.000000000000000  1.215396445989832E-004  0.000000000000000 -2.109423746787797E-014
   608000.000000000  0.000000000000000  5.839135852886010E-005 -1.177850135133940E-015 -4.111294638065033E-015
   624000.000000000  0.000000000000000  1.254223295745591E-004  0.000000000000000  1.387778780781446E-016
   640000.000000000  0.000000000000000  5.871090165590251E-005  5.421010862427522E-019 -3.469446951953614E-017
   656000.000000000  0.000000000000000  1.254223032932848E-004  0.000000000000000 -2.775557561562891E-016
   672000.000000000  0.000000000000000  5.871089837064047E-005  0.000000000000000 -1.387778780781446E-016
   688000.000000000  0.000000000000000  1.254223032932847E-004  0.000000000000000 -2.775557561562891E-016
   704000.000000000  0.000000000000000  5.871089837064044E-005  0.000000000000000 -1.387778780781446E-016
   720000.000000000  0.000000000000000  1.254223032932847E-004  0.000000000000000 -2.775557561562891E-016
   736000.000000000  0.000000000000000  5.871089837064044E-005  0.000000000000000 -1.387778780781446E-016
   752000.000000000  0.000000000000000  1.254223032932847E-004  0.000000000000000 -2.775557561562891E-016
   768000.000000000  0.000000000000000  5.871089837064044E-005  0.000000000000000 -1.387778780781446E-016
   784000.000000000  0.000000000000000  1.254223032932847E-004  0.000000000000000 -2.775557561562891E-016
   800000.000000000  0.000000000000000  5.871089837064044E-005  0.000000000000000 -1.387778780781446E-016
   816000.000000000  0.000000000000000  1.254223032932847E-004  0.000000000000000 -2.775557561562891E-016
   832000.000000000  0.000000000000000  5.871089837064044E-005  0.000000000000000 -1.387778780781446E-016
   848000.000000000  0.000000000000000  1.254223032932847E-004  0.000000000000000 -2.775557561562891E-016
   864000.000000000  0.000000000000000  5.871089837064044E-005  0.000000000000000 -1.387778780781446E-016
   880000.000000000  0.000000000000000  1.254223032932847E-004  0.000000000000000 -2.775557561562891E-016
   896000.000000000  0.000000000000000  5.871089837064044E-005  0.000000000000000 -1.387778780781446E-016
   912000.000000000  0.000000000000000  1.254223032932847E-004  0.000000000000000 -2.775557561562891E-016
   928000.000000000  0.000000000000000  5.871089837064044E-005  0.000000000000000 -1.387778780781446E-016
   944000.000000000  0.000000000000000  1.254223032932847E-004  0.000000000000000 -2.775557561562891E-016
   960000.000000000  0.000000000000000  5.871089837064044E-005  0.000000000000000 -1.387778780781446E-016
   976000.000000000  0.000000000000000  1.254223032932847E-004  0.000000000000000 -2.775557561562891E-016
   992000.000000000  0.000000000000000  5.871089837064044E-005  0.000000000000000 -1.387778780781446E-016
   1008000.00000000  0.000000000000000  1.254223032932847E-004  0.000000000000000 -2.775557561562891E-016
   1024000.00000000  0.000000000000000  5.871089837064044E-005  0.000000000000000 -1.387778780781446E-016
   1040000.00000000  0.000000000000000  1.254223032932847E-004  0.000000000000000 -2.775557561562891E-016
   1056000.00000000  0.000000000000000  5.871089837064044E-005  0.000000000000000 -1.387778780781446E-016
   1072000.00000000  0.000000000000000  1.254223032932847E-004  0.000000000000000 -2.775557561562891E-016
   1088000.00000000  0.000000000000000  5.871089837064044E-005  0.000000000000000 -1.387778780781446E-016
   1104000.00000000  0.000000000000000  1.254223032932847E-004  0.000000000000000 -2.775557561562891E-016
   1120000.00000000  0.000000000000000  5.871089837064044E-005  0.000000000000000 -1.387778780781446E-016
   1136000.00000000  0.000000000000000  1.254223032932847E-004  0.000000000000000 -2.775557561562891E-016
   1152000.00000000  0.000000000000000  5.871089837064044E-005  0.000000000000000 -1.387778780781446E-016
   1168000.00000000  0.000000000000000  1.254223032932847E-004  0.000000000000000 -2.775557561562891E-016
   1184000.00000000  0.000000000000000  5.871089837064044E-005  0.000000000000000 -1.387778780781446E-016
   1200000.00000000  0.000000000000000  1.254223032932847E-004  0.000000000000000 -2.775557561562891E-016