title = "elemental data"
variables = "time (yr)", "temp (deg. c)","qx(m/yr)","qz(m/yr)","x(m)","z(m)","mat","head(m)"
text  x=50.0,y=50.0,t="element # 12831 "
zone f="point",i=  3000
   10.0000000000000  24.1457797689607  2.771116669464391E-013  5.684341886080801E-014  245333.333333333  99433.3333333334  3  99999.9999999995
   20.0000000000000  24.1457783656468  3.232969447708456E-013  5.684341886080801E-014  245333.333333333  99433.3333333334  3  99999.9999999994
   30.0000000000000  24.1457741855410  3.304023721284466E-013  5.684341886080801E-014  245333.333333333  99433.3333333334  3  99999.9999999994
   40.0000000000000  24.1457646058606  3.375077994860476E-013  5.684341886080801E-014  245333.333333333  99433.3333333334  3  99999.9999999994
   50.0000000000000  24.1457459477496  3.375077994860476E-013  5.684341886080801E-014  245333.333333333  99433.3333333334  3  99999.9999999994
   60.0000000000000  24.1457134628387  3.375077994860476E-013  5.684341886080801E-014  245333.333333333  99433.3333333334  3  99999.9999999994
   70.0000000000000  24.1456613794550  3.375077994860476E-013  5.684341886080801E-014  245333.333333333  99433.3333333334  3  99999.9999999994
   80.0000000000000  24.1455829943320  3.375077994860476E-013  5.684341886080801E-014  245333.333333333  99433.3333333334  3  99999.9999999994
   90.0000000000000  24.1454707960181  3.375077994860476E-013  5.684341886080801E-014  245333.333333333  99433.3333333334  3  99999.9999999994
   100.000000000000  24.1453166076679  3.375077994860476E-013  5.684341886080801E-014  245333.333333333  99433.3333333334  3  99999.9999999994
   110.000000000000  24.1451117388936  3.375077994860476E-013  5.684341886080801E-014  245333.333333333  99433.3333333334  3  99999.9999999994
   120.000000000000  24.1448471384682  3.375077994860476E-013  5.684341886080801E-014  245333.333333333  99433.3333333334  3  99999.9999999994
   130.000000000000  24.1445135416762  3.375077994860476E-013  5.684341886080801E-014  245333.333333333  99433.3333333334  3  99999.9999999994
   140.000000000000  24.1441016078904  3.375077994860476E-013  5.684341886080801E-014  245333.333333333  99433.3333333334  3  99999.9999999994
   150.000000000000  24.1436020454619  3.375077994860476E-013  5.684341886080801E-014  245333.333333333  99433.3333333334  3  99999.9999999994
   160.000000000000  24.1430057222355  3.375077994860476E-013  5.684341886080801E-014  245333.333333333  99433.3333333334  3  99999.9999999994
   170.000000000000  24.1423037609702  3.375077994860476E-013  5.684341886080801E-014  245333.333333333  99433.3333333334  3  99999.9999999994
   180.000000000000  24.1414876196694  3.375077994860476E-013  5.684341886080801E-014  245333.333333333  99433.3333333334  3  99999.9999999994
   190.000000000000  24.1405491573568  3.375077994860476E-013  5.684341886080801E-014  245333.333333333  99433.3333333334  3  99999.9999999994
   200.000000000000  24.1394806861961  3.375077994860476E-013  5.684341886080801E-014  245333.333333333  99433.3333333334  3  99999.9999999994
   210.000000000000  24.1382750110837  3.410605131648481E-013  5.684341886080801E-014  245333.333333333  99433.3333333334  3  99999.9999999994
   220.000000000000  24.1369254579700  3.410605131648481E-013  5.684341886080801E-014  245333.333333333  99433.3333333334  3  99999.9999999994
   230.000000000000  24.1354258922136  3.410605131648481E-013  5.684341886080801E-014  245333.333333333  99433.3333333334  3  99999.9999999994
   240.000000000000  24.1337707282631  3.410605131648481E-013  5.684341886080801E-014  245333.333333333  99433.3333333334  3  99999.9999999994
   250.000000000000  24.1319549319099  3.410605131648481E-013  5.684341886080801E-014  245333.333333333  99433.3333333334  3  99999.9999999994
   260.000000000000  24.1299740162792  3.410605131648481E-013  5.684341886080801E-014  245333.333333333  99433.3333333334  3  99999.9999999994
   270.000000000000  24.1278240326323  3.410605131648481E-013  5.684341886080801E-014  245333.333333333  99433.3333333334  3  99999.9999999994
   280.000000000000  24.1255015569474  3.410605131648481E-013  5.684341886080801E-014  245333.333333333  99433.3333333334  3  99999.9999999994
   290.000000000000  24.1230036731455  3.410605131648481E-013  5.684341886080801E-014  245333.333333333  99433.3333333334  3  99999.9999999994
   300.000000000000  24.1203279537204  3.410605131648481E-013  5.684341886080801E-014  245333.333333333  99433.3333333334  3  99999.9999999994
   310.000000000000  24.1174724384329  3.410605131648481E-013  5.684341886080801E-014  245333.333333333  99433.3333333334  3  99999.9999999994
   320.000000000000  24.1144356116395  3.410605131648481E-013  5.684341886080801E-014  245333.333333333  99433.3333333334  3  99999.9999999994
   330.000000000000  24.1112163787365  3.410605131648481E-013  5.684341886080801E-014  245333.333333333  99433.3333333334  3  99999.9999999994
   340.000000000000  24.1078140421261  3.410605131648481E-013  5.684341886080801E-014  245333.333333333  99433.3333333334  3  99999.9999999994
   350.000000000000  24.1042282770425  3.410605131648481E-013  5.684341886080801E-014  245333.333333333  99433.3333333334  3  99999.9999999994
   360.000000000000  24.1004591075130  3.446132268436486E-013  5.684341886080801E-014  245333.333333333  99433.3333333334  3  99999.9999999994
   370.000000000000  24.0965068826787  3.446132268436486E-013  5.684341886080801E-014  245333.333333333  99433.3333333334  3  99999.9999999994
   380.000000000000  24.0923722536515  3.446132268436486E-013  5.684341886080801E-014  245333.333333333  99433.3333333334  3  99999.9999999994
   390.000000000000  24.0880561510447  3.446132268436486E-013  5.684341886080801E-014  245333.333333333  99433.3333333334  3  99999.9999999994
   400.000000000000  24.0835597632836  3.446132268436486E-013  5.684341886080801E-014  245333.333333333  99433.3333333334  3  99999.9999999994
   410.000000000000  24.0788845157687  3.446132268436486E-013  5.684341886080801E-014  245333.333333333  99433.3333333334  3  99999.9999999994
   420.000000000000  24.0740320509469  3.446132268436486E-013  5.684341886080801E-014  245333.333333333  99433.3333333334  3  99999.9999999994
   430.000000000000  24.0690042093201  3.446132268436486E-013  5.684341886080801E-014  245333.333333333  99433.3333333334  3  99999.9999999994
   440.000000000000  24.0638030114101  3.446132268436486E-013  5.684341886080801E-014  245333.333333333  99433.3333333334  3  99999.9999999994
   450.000000000000  24.0584306406809  3.446132268436486E-013  5.684341886080801E-014  245333.333333333  99433.3333333334  3  99999.9999999994
   460.000000000000  24.0528894274109  3.446132268436486E-013  5.684341886080801E-014  245333.333333333  99433.3333333334  3  99999.9999999994
   470.000000000000  24.0471818335006  3.446132268436486E-013  5.684341886080801E-014  245333.333333333  99433.3333333334  3  99999.9999999994
   480.000000000000  24.0413104381920  3.446132268436486E-013  5.684341886080801E-014  245333.333333333  99433.3333333334  3  99999.9999999994
   490.000000000000  24.0352779246726  3.446132268436486E-013  5.684341886080801E-014  245333.333333333  99433.3333333334  3  99999.9999999994
   500.000000000000  24.0290870675331  3.446132268436486E-013  5.684341886080801E-014  245333.333333333  99433.3333333334  3  99999.9999999994
   510.000000000000  24.0227407210461  3.446132268436486E-013  5.684341886080801E-014  245333.333333333  99433.3333333334  3  99999.9999999994
   520.000000000000  24.0162418082288  3.446132268436486E-013  5.684341886080801E-014  245333.333333333  99433.3333333334  3  99999.9999999994
   530.000000000000  24.0095933106554  3.446132268436486E-013  5.684341886080801E-014  245333.333333333  99433.3333333334  3  99999.9999999994
   540.000000000000  24.0027982589818  3.446132268436486E-013  5.684341886080801E-014  245333.333333333  99433.3333333334  3  99999.9999999994
   550.000000000000  23.9958597241458  3.446132268436486E-013  5.684341886080801E-014  245333.333333333  99433.3333333334  3  99999.9999999994
   560.000000000000  23.9887808092084  3.446132268436486E-013  5.684341886080801E-014  245333.333333333  99433.3333333334  3  99999.9999999994
   570.000000000000  23.9815646417988  3.446132268436486E-013  5.684341886080801E-014  245333.333333333  99433.3333333334  3  99999.9999999994
   580.000000000000  23.9742143671314  3.446132268436486E-013  5.684341886080801E-014  245333.333333333  99433.3333333334  3  99999.9999999994
   590.000000000000  23.9667331415593  3.446132268436486E-013  5.684341886080801E-014  245333.333333333  99433.3333333334  3  99999.9999999994
   600.000000000000  23.9591241266344  3.446132268436486E-013  5.684341886080801E-014  245333.333333333  99433.3333333334  3  99999.9999999994
   610.000000000000  23.9513904836419  3.446132268436486E-013  5.684341886080801E-014  245333.333333333  99433.3333333334  3  99999.9999999994
   620.000000000000  23.9435353685818  3.446132268436486E-013  5.684341886080801E-014  245333.333333333  99433.3333333334  3  99999.9999999994
   630.000000000000  23.9355619275677  3.446132268436486E-013  5.684341886080801E-014  245333.333333333  99433.3333333334  3  99999.9999999994
   640.000000000000  23.9274732926179  3.446132268436486E-013  5.684341886080801E-014  245333.333333333  99433.3333333334  3  99999.9999999994
   650.000000000000  23.9192725778125  3.446132268436486E-013  5.684341886080801E-014  245333.333333333  99433.3333333334  3  99999.9999999994
   660.000000000000  23.9109628757939  3.446132268436486E-013  5.684341886080801E-014  245333.333333333  99433.3333333334  3  99999.9999999994
   670.000000000000  23.9025472545878  3.446132268436486E-013  5.684341886080801E-014  245333.333333333  99433.3333333334  3  99999.9999999994
   680.000000000000  23.8940287547222  3.446132268436486E-013  5.684341886080801E-014  245333.333333333  99433.3333333334  3  99999.9999999994
   690.000000000000  23.8854103866270  3.446132268436486E-013  5.684341886080801E-014  245333.333333333  99433.3333333334  3  99999.9999999994
   700.000000000000  23.8766951282927  3.446132268436486E-013  5.684341886080801E-014  245333.333333333  99433.3333333334  3  99999.9999999994
   710.000000000000  23.8678859231722  3.446132268436486E-013  5.684341886080801E-014  245333.333333333  99433.3333333334  3  99999.9999999994
   720.000000000000  23.8589856783080  3.446132268436486E-013  5.684341886080801E-014  245333.333333333  99433.3333333334  3  99999.9999999994
   730.000000000000  23.8499972626695  3.446132268436486E-013  5.684341886080801E-014  245333.333333333  99433.3333333334  3  99999.9999999994
   740.000000000000  23.8409235056860  3.446132268436486E-013  5.684341886080801E-014  245333.333333333  99433.3333333334  3  99999.9999999994
   750.000000000000  23.8317671959608  3.446132268436486E-013  5.684341886080801E-014  245333.333333333  99433.3333333334  3  99999.9999999994
   760.000000000000  23.8225310801538  3.446132268436486E-013  5.684341886080801E-014  245333.333333333  99433.3333333334  3  99999.9999999994
   770.000000000000  23.8132178620204  3.446132268436486E-013  5.684341886080801E-014  245333.333333333  99433.3333333334  3  99999.9999999994
   780.000000000000  23.8038302015956  3.446132268436486E-013  5.684341886080801E-014  245333.333333333  99433.3333333334  3  99999.9999999994
   790.000000000000  23.7943707145118  3.446132268436486E-013  5.684341886080801E-014  245333.333333333  99433.3333333334  3  99999.9999999994
   800.000000000000  23.7848419714409  3.446132268436486E-013  5.684341886080801E-014  245333.333333333  99433.3333333334  3  99999.9999999994
   810.000000000000  23.7752464976516  3.446132268436486E-013  5.684341886080801E-014  245333.333333333  99433.3333333334  3  99999.9999999994
   820.000000000000  23.7655867726714  3.446132268436486E-013  5.684341886080801E-014  245333.333333333  99433.3333333334  3  99999.9999999994
   830.000000000000  23.7558652300482  3.446132268436486E-013  5.684341886080801E-014  245333.333333333  99433.3333333334  3  99999.9999999994
   840.000000000000  23.7460842572002  3.446132268436486E-013  5.684341886080801E-014  245333.333333333  99433.3333333334  3  99999.9999999994
   850.000000000000  23.7362461953495  3.446132268436486E-013  5.684341886080801E-014  245333.333333333  99433.3333333334  3  99999.9999999994
   860.000000000000  23.7263533395318  3.446132268436486E-013  5.684341886080801E-014  245333.333333333  99433.3333333334  3  99999.9999999994
   870.000000000000  23.7164079386757  3.446132268436486E-013  5.684341886080801E-014  245333.333333333  99433.3333333334  3  99999.9999999994
   880.000000000000  23.7064121957460  3.446132268436486E-013  5.684341886080801E-014  245333.333333333  99433.3333333334  3  99999.9999999994
   890.000000000000  23.6963682679455  3.446132268436486E-013  5.684341886080801E-014  245333.333333333  99433.3333333334  3  99999.9999999994
   900.000000000000  23.6862782669702  3.446132268436486E-013  5.684341886080801E-014  245333.333333333  99433.3333333334  3  99999.9999999994
   910.000000000000  23.6761442593129  3.446132268436486E-013  5.684341886080801E-014  245333.333333333  99433.3333333334  3  99999.9999999994
   920.000000000000  23.6659682666112  3.446132268436486E-013  5.684341886080801E-014  245333.333333333  99433.3333333334  3  99999.9999999994
   930.000000000000  23.6557522660349  3.446132268436486E-013  5.684341886080801E-014  245333.333333333  99433.3333333334  3  99999.9999999994
   940.000000000000  23.6454981907103  3.446132268436486E-013  5.684341886080801E-014  245333.333333333  99433.3333333334  3  99999.9999999994
   950.000000000000  23.6352079301761  3.446132268436486E-013  5.684341886080801E-014  245333.333333333  99433.3333333334  3  99999.9999999994
   960.000000000000  23.6248833308688  3.446132268436486E-013  5.684341886080801E-014  245333.333333333  99433.3333333334  3  99999.9999999994
   970.000000000000  23.6145261966346  3.446132268436486E-013  5.684341886080801E-014  245333.333333333  99433.3333333334  3  99999.9999999994
   980.000000000000  23.6041382892632  3.446132268436486E-013  5.684341886080801E-014  245333.333333333  99433.3333333334  3  99999.9999999994
   990.000000000000  23.5937213290429  3.446132268436486E-013  5.684341886080801E-014  245333.333333333  99433.3333333334  3  99999.9999999994
   1000.00000000000  23.5832769953334  3.446132268436486E-013  5.684341886080801E-014  245333.333333333  99433.3333333334  3  99999.9999999994
   1010.00000000000  23.5728069271537  3.446132268436486E-013  5.684341886080801E-014  245333.333333333  99433.3333333334  3  99999.9999999994
   1020.00000000000  23.5623127237838  3.446132268436486E-013  5.684341886080801E-014  245333.333333333  99433.3333333334  3  99999.9999999994
   1030.00000000000  23.5517959453779  3.446132268436486E-013  5.684341886080801E-014  245333.333333333  99433.3333333334  3  99999.9999999994
   1040.00000000000  23.5412581135860  3.446132268436486E-013  5.684341886080801E-014  245333.333333333  99433.3333333334  3  99999.9999999994
   1050.00000000000  23.5307007121850  3.446132268436486E-013  5.684341886080801E-014  245333.333333333  99433.3333333334  3  99999.9999999994
   1060.00000000000  23.5201251877144  3.446132268436486E-013  5.684341886080801E-014  245333.333333333  99433.3333333334  3  99999.9999999994
   1070.00000000000  23.5095329501177  3.446132268436486E-013  5.684341886080801E-014  245333.333333333  99433.3333333334  3  99999.9999999994
   1080.00000000000  23.4989253733869  3.446132268436486E-013  5.684341886080801E-014  245333.333333333  99433.3333333334  3  99999.9999999994
   1090.00000000000  23.4883037962087  3.446132268436486E-013  5.684341886080801E-014  245333.333333333  99433.3333333334  3  99999.9999999994
   1100.00000000000  23.4776695226124  3.446132268436486E-013  5.684341886080801E-014  245333.333333333  99433.3333333334  3  99999.9999999994
   1110.00000000000  23.4670238226173  3.446132268436486E-013  5.684341886080801E-014  245333.333333333  99433.3333333334  3  99999.9999999994
   1120.00000000000  23.4563679328789  3.446132268436486E-013  5.684341886080801E-014  245333.333333333  99433.3333333334  3  99999.9999999994
   1130.00000000000  23.4457030573336  3.446132268436486E-013  5.684341886080801E-014  245333.333333333  99433.3333333334  3  99999.9999999994
   1140.00000000000  23.4350303678404  3.446132268436486E-013  5.684341886080801E-014  245333.333333333  99433.3333333334  3  99999.9999999994
   1150.00000000000  23.4243510048187  3.446132268436486E-013  5.684341886080801E-014  245333.333333333  99433.3333333334  3  99999.9999999994
   1160.00000000000  23.4136660778829  3.446132268436486E-013  5.684341886080801E-014  245333.333333333  99433.3333333334  3  99999.9999999994
   1170.00000000000  23.4029766664713  3.446132268436486E-013  5.684341886080801E-014  245333.333333333  99433.3333333334  3  99999.9999999994
   1180.00000000000  23.3922838204704  3.446132268436486E-013  5.684341886080801E-014  245333.333333333  99433.3333333334  3  99999.9999999994
   1190.00000000000  23.3815885608323  3.446132268436486E-013  5.684341886080801E-014  245333.333333333  99433.3333333334  3  99999.9999999994
   1200.00000000000  23.3708918801872  3.446132268436486E-013  5.684341886080801E-014  245333.333333333  99433.3333333334  3  99999.9999999994
   1210.00000000000  23.3601947434482  3.446132268436486E-013  5.684341886080801E-014  245333.333333333  99433.3333333334  3  99999.9999999994
   1220.00000000000  23.3494980884094  3.446132268436486E-013  5.684341886080801E-014  245333.333333333  99433.3333333334  3  99999.9999999994
   1230.00000000000  23.3388028263363  3.446132268436486E-013  5.684341886080801E-014  245333.333333333  99433.3333333334  3  99999.9999999994
   1240.00000000000  23.3281098425494  3.446132268436486E-013  5.684341886080801E-014  245333.333333333  99433.3333333334  3  99999.9999999994
   1250.00000000000  23.3174199969985  3.446132268436486E-013  5.684341886080801E-014  245333.333333333  99433.3333333334  3  99999.9999999994
   1260.00000000000  23.3067341248304  3.446132268436486E-013  5.684341886080801E-014  245333.333333333  99433.3333333334  3  99999.9999999994
   1270.00000000000  23.2960530369471  3.446132268436486E-013  5.684341886080801E-014  245333.333333333  99433.3333333334  3  99999.9999999994
   1280.00000000000  23.2853775205560  3.446132268436486E-013  5.684341886080801E-014  245333.333333333  99433.3333333334  3  99999.9999999994
   1290.00000000000  23.2747083397116  3.446132268436486E-013  5.684341886080801E-014  245333.333333333  99433.3333333334  3  99999.9999999994
   1300.00000000000  23.2640462358484  3.446132268436486E-013  5.684341886080801E-014  245333.333333333  99433.3333333334  3  99999.9999999994
   1310.00000000000  23.2533919283045  3.446132268436486E-013  5.684341886080801E-014  245333.333333333  99433.3333333334  3  99999.9999999994
   1320.00000000000  23.2427461148374  3.446132268436486E-013  5.684341886080801E-014  245333.333333333  99433.3333333334  3  99999.9999999994
   1330.00000000000  23.2321094721295  3.446132268436486E-013  5.684341886080801E-014  245333.333333333  99433.3333333334  3  99999.9999999994
   1340.00000000000  23.2214826562862  3.446132268436486E-013  5.684341886080801E-014  245333.333333333  99433.3333333334  3  99999.9999999994
   1350.00000000000  23.2108663033235  3.446132268436486E-013  5.684341886080801E-014  245333.333333333  99433.3333333334  3  99999.9999999994
   1360.00000000000  23.2002610296478  3.446132268436486E-013  5.684341886080801E-014  245333.333333333  99433.3333333334  3  99999.9999999994
   1370.00000000000  23.1896674325260  3.446132268436486E-013  5.684341886080801E-014  245333.333333333  99433.3333333334  3  99999.9999999994
   1380.00000000000  23.1790860905472  3.446132268436486E-013  5.684341886080801E-014  245333.333333333  99433.3333333334  3  99999.9999999994
   1390.00000000000  23.1685175640753  3.446132268436486E-013  5.684341886080801E-014  245333.333333333  99433.3333333334  3  99999.9999999994
   1400.00000000000  23.1579623956924  3.446132268436486E-013  5.684341886080801E-014  245333.333333333  99433.3333333334  3  99999.9999999994
   1410.00000000000  23.1474211106340  3.446132268436486E-013  5.684341886080801E-014  245333.333333333  99433.3333333334  3  99999.9999999994
   1420.00000000000  23.1368942172152  3.446132268436486E-013  5.684341886080801E-014  245333.333333333  99433.3333333334  3  99999.9999999994
   1430.00000000000  23.1263822072485  3.446132268436486E-013  5.684341886080801E-014  245333.333333333  99433.3333333334  3  99999.9999999994
   1440.00000000000  23.1158855564522  3.446132268436486E-013  5.684341886080801E-014  245333.333333333  99433.3333333334  3  99999.9999999994
   1450.00000000000  23.1054047248514  3.446132268436486E-013  5.684341886080801E-014  245333.333333333  99433.3333333334  3  99999.9999999994
   1460.00000000000  23.0949401571700  3.446132268436486E-013  5.684341886080801E-014  245333.333333333  99433.3333333334  3  99999.9999999994
   1470.00000000000  23.0844922832146  3.446132268436486E-013  5.684341886080801E-014  245333.333333333  99433.3333333334  3  99999.9999999994
   1480.00000000000  23.0740615182500  3.446132268436486E-013  5.684341886080801E-014  245333.333333333  99433.3333333334  3  99999.9999999994
   1490.00000000000  23.0636482633669  3.446132268436486E-013  5.684341886080801E-014  245333.333333333  99433.3333333334  3  99999.9999999994
   1500.00000000000  23.0532529058413  3.446132268436486E-013  5.684341886080801E-014  245333.333333333  99433.3333333334  3  99999.9999999994
   1510.00000000000  23.0428758194864  3.446132268436486E-013  5.684341886080801E-014  245333.333333333  99433.3333333334  3  99999.9999999994
   1520.00000000000  23.0325173649962  3.446132268436486E-013  5.684341886080801E-014  245333.333333333  99433.3333333334  3  99999.9999999994
   1530.00000000000  23.0221778902824  3.446132268436486E-013  5.684341886080801E-014  245333.333333333  99433.3333333334  3  99999.9999999994
   1540.00000000000  23.0118577308027  3.446132268436486E-013  5.684341886080801E-014  245333.333333333  99433.3333333334  3  99999.9999999994
   1550.00000000000  23.0015572098823  3.446132268436486E-013  5.684341886080801E-014  245333.333333333  99433.3333333334  3  99999.9999999994
   1560.00000000000  22.9912766390282  3.446132268436486E-013  5.684341886080801E-014  245333.333333333  99433.3333333334  3  99999.9999999994
   1570.00000000000  22.9810163182361  3.446132268436486E-013  5.684341886080801E-014  245333.333333333  99433.3333333334  3  99999.9999999994
   1580.00000000000  22.9707765362902  3.446132268436486E-013  5.684341886080801E-014  245333.333333333  99433.3333333334  3  99999.9999999994
   1590.00000000000  22.9605575710562  3.446132268436486E-013  5.684341886080801E-014  245333.333333333  99433.3333333334  3  99999.9999999994
   1600.00000000000  22.9503596897681  3.446132268436486E-013  5.684341886080801E-014  245333.333333333  99433.3333333334  3  99999.9999999994
   1610.00000000000  22.9401831493071  3.446132268436486E-013  5.684341886080801E-014  245333.333333333  99433.3333333334  3  99999.9999999994
   1620.00000000000  22.9300281964749  3.446132268436486E-013  5.684341886080801E-014  245333.333333333  99433.3333333334  3  99999.9999999994
   1630.00000000000  22.9198950682606  3.446132268436486E-013  5.684341886080801E-014  245333.333333333  99433.3333333334  3  99999.9999999994
   1640.00000000000  22.9097839921007  3.446132268436486E-013  5.684341886080801E-014  245333.333333333  99433.3333333334  3  99999.9999999994
   1650.00000000000  22.8996951861335  3.446132268436486E-013  5.684341886080801E-014  245333.333333333  99433.3333333334  3  99999.9999999994
   1660.00000000000  22.8896288594471  3.446132268436486E-013  5.684341886080801E-014  245333.333333333  99433.3333333334  3  99999.9999999994
   1670.00000000000  22.8795852123218  3.446132268436486E-013  5.684341886080801E-014  245333.333333333  99433.3333333334  3  99999.9999999994
   1680.00000000000  22.8695644364665  3.446132268436486E-013  5.684341886080801E-014  245333.333333333  99433.3333333334  3  99999.9999999994
   1690.00000000000  22.8595667152492  3.446132268436486E-013  5.684341886080801E-014  245333.333333333  99433.3333333334  3  99999.9999999994
   1700.00000000000  22.8495922239223  3.446132268436486E-013  5.684341886080801E-014  245333.333333333  99433.3333333334  3  99999.9999999994
   1710.00000000000  22.8396411298425  3.446132268436486E-013  5.684341886080801E-014  245333.333333333  99433.3333333334  3  99999.9999999994
   1720.00000000000  22.8297135926848  3.446132268436486E-013  5.684341886080801E-014  245333.333333333  99433.3333333334  3  99999.9999999994
   1730.00000000000  22.8198097646519  3.446132268436486E-013  5.684341886080801E-014  245333.333333333  99433.3333333334  3  99999.9999999994
   1740.00000000000  22.8099297906781  3.446132268436486E-013  5.684341886080801E-014  245333.333333333  99433.3333333334  3  99999.9999999994
   1750.00000000000  22.8000738086285  3.446132268436486E-013  5.684341886080801E-014  245333.333333333  99433.3333333334  3  99999.9999999994
   1760.00000000000  22.7902419494928  3.446132268436486E-013  5.684341886080801E-014  245333.333333333  99433.3333333334  3  99999.9999999994
   1770.00000000000  22.7804343375751  3.446132268436486E-013  5.684341886080801E-014  245333.333333333  99433.3333333334  3  99999.9999999994
   1780.00000000000  22.7706510906781  3.446132268436486E-013  5.684341886080801E-014  245333.333333333  99433.3333333334  3  99999.9999999994
   1790.00000000000  22.7608923202835  3.446132268436486E-013  5.684341886080801E-014  245333.333333333  99433.3333333334  3  99999.9999999994
   1800.00000000000  22.7511581317274  3.446132268436486E-013  5.684341886080801E-014  245333.333333333  99433.3333333334  3  99999.9999999994
   1810.00000000000  22.7414486243718  3.446132268436486E-013  5.684341886080801E-014  245333.333333333  99433.3333333334  3  99999.9999999994
   1820.00000000000  22.7317638917712  3.446132268436486E-013  5.684341886080801E-014  245333.333333333  99433.3333333334  3  99999.9999999994
   1830.00000000000  22.7221040218357  3.446132268436486E-013  5.684341886080801E-014  245333.333333333  99433.3333333334  3  99999.9999999994
   1840.00000000000  22.7124690969896  3.446132268436486E-013  5.684341886080801E-014  245333.333333333  99433.3333333334  3  99999.9999999994
   1850.00000000000  22.7028591943259  3.446132268436486E-013  5.684341886080801E-014  245333.333333333  99433.3333333334  3  99999.9999999994
   1860.00000000000  22.6932743857575  3.446132268436486E-013  5.684341886080801E-014  245333.333333333  99433.3333333334  3  99999.9999999994
   1870.00000000000  22.6837147381640  3.446132268436486E-013  5.684341886080801E-014  245333.333333333  99433.3333333334  3  99999.9999999994
   1880.00000000000  22.6741803135347  3.446132268436486E-013  5.684341886080801E-014  245333.333333333  99433.3333333334  3  99999.9999999994
   1890.00000000000  22.6646711691089  3.446132268436486E-013  5.684341886080801E-014  245333.333333333  99433.3333333334  3  99999.9999999994
   1900.00000000000  22.6551873575115  3.446132268436486E-013  5.684341886080801E-014  245333.333333333  99433.3333333334  3  99999.9999999994
   1910.00000000000  22.6457289268858  3.446132268436486E-013  5.684341886080801E-014  245333.333333333  99433.3333333334  3  99999.9999999994
   1920.00000000000  22.6362959210229  3.446132268436486E-013  5.684341886080801E-014  245333.333333333  99433.3333333334  3  99999.9999999994
   1930.00000000000  22.6268883794874  3.446132268436486E-013  5.684341886080801E-014  245333.333333333  99433.3333333334  3  99999.9999999994
   1940.00000000000  22.6175063377406  3.446132268436486E-013  5.684341886080801E-014  245333.333333333  99433.3333333334  3  99999.9999999994
   1950.00000000000  22.6081498272596  3.446132268436486E-013  5.684341886080801E-014  245333.333333333  99433.3333333334  3  99999.9999999994
   1960.00000000000  22.5988188756541  3.446132268436486E-013  5.684341886080801E-014  245333.333333333  99433.3333333334  3  99999.9999999994
   1970.00000000000  22.5895135067800  3.446132268436486E-013  5.684341886080801E-014  245333.333333333  99433.3333333334  3  99999.9999999994
   1980.00000000000  22.5802337408501  3.446132268436486E-013  5.684341886080801E-014  245333.333333333  99433.3333333334  3  99999.9999999994
   1990.00000000000  22.5709795945415  3.446132268436486E-013  5.684341886080801E-014  245333.333333333  99433.3333333334  3  99999.9999999994
   2000.00000000000  22.5617510811011  3.446132268436486E-013  5.684341886080801E-014  245333.333333333  99433.3333333334  3  99999.9999999994
   2010.00000000000  22.5525482104474  3.446132268436486E-013  5.684341886080801E-014  245333.333333333  99433.3333333334  3  99999.9999999994
   2020.00000000000  22.5433709892706  3.446132268436486E-013  5.684341886080801E-014  245333.333333333  99433.3333333334  3  99999.9999999994
   2030.00000000000  22.5342194211293  3.446132268436486E-013  5.684341886080801E-014  245333.333333333  99433.3333333334  3  99999.9999999994
   2040.00000000000  22.5250935065454  3.446132268436486E-013  5.684341886080801E-014  245333.333333333  99433.3333333334  3  99999.9999999994
   2050.00000000000  22.5159932430957  3.446132268436486E-013  5.684341886080801E-014  245333.333333333  99433.3333333334  3  99999.9999999994
   2060.00000000000  22.5069186255019  3.446132268436486E-013  5.684341886080801E-014  245333.333333333  99433.3333333334  3  99999.9999999994
   2070.00000000000  22.4978696457182  3.446132268436486E-013  5.684341886080801E-014  245333.333333333  99433.3333333334  3  99999.9999999994
   2080.00000000000  22.4888462930157  3.446132268436486E-013  5.684341886080801E-014  245333.333333333  99433.3333333334  3  99999.9999999994