 title = "surface data"
 variables = "x (m)","jz (mw/m*m)",                       "qx(m/yr)", "qz(m/yr)"
 zone f="point",i=  101
   0.000000000000000  0.000000000000000  1.502929161311223E-004  4.005693057937062E-007 -2.372978059994590E-005
   16000.0000000000  0.000000000000000  1.589848827654462E-004  2.744407822036828E-007  1.807781702112266E-010
   32000.0000000000  0.000000000000000  7.514658534308443E-005  2.824665143712907E-013  4.519492419197135E-011
   48000.0000000000  0.000000000000000  1.589849158266311E-004  0.000000000000000 -2.775557561562891E-016
   64000.0000000000  0.000000000000000  7.514658947582655E-005  0.000000000000000 -1.387778780781446E-016
   80000.0000000000  0.000000000000000  1.589849158266311E-004  0.000000000000000 -2.775557561562891E-016
   96000.0000000000  0.000000000000000  7.514658947582655E-005  0.000000000000000 -1.387778780781446E-016
   112000.000000000  0.000000000000000  1.589849158266311E-004  0.000000000000000 -2.775557561562891E-016
   128000.000000000  0.000000000000000  7.514658947583075E-005  0.000000000000000 -1.387778780781446E-016
   144000.000000000  0.000000000000000  1.589849158266647E-004  0.000000000000000 -2.775557561562891E-016
   160000.000000000  0.000000000000000  7.533794373766641E-005 -8.131516293641283E-019  3.469446951953614E-017
   176000.000000000  0.000000000000000  1.573107560259990E-004  0.000000000000000  7.126244039312724E-014
   192000.000000000  0.000000000000000  7.117210419612891E-005  6.591949208711867E-016 -3.219646771412954E-014
   208000.000000000  0.000000000000000  1.461628251979482E-004  0.000000000000000 -4.218847493575595E-014
   224000.000000000  0.000000000000000  6.880671684593670E-005 -2.119832087643658E-014 -2.325917236589703E-013
   240000.000000000  0.000000000000000  1.385326103456122E-004  0.000000000000000  4.973799150320701E-013
   256000.000000000  0.000000000000000  5.860077927669418E-005  8.881784197001252E-015 -2.415845301584341E-012
   272000.000000000  0.000000000000000  1.207062559521451E-004  0.000000000000000  0.000000000000000
   288000.000000000  0.000000000000000  6.408745897753252E-005  9.308526172091547E-014 -1.572630914381534E-012
   304000.000000000  0.000000000000000  1.461628098198541E-004  0.000000000000000 -4.396483177515620E-013
   320000.000000000  0.000000000000000  6.880671492363710E-005 -8.104628079763643E-014 -1.516564651637964E-012
   336000.000000000  0.000000000000000  1.385326103455173E-004  0.000000000000000 -4.263256414560601E-013
   352000.000000000  0.000000000000000  6.082886723699237E-005  1.909583602355269E-013 -2.735589532676386E-012
   368000.000000000  0.000000000000000  1.385310167401708E-004  0.000000000000000 -3.146372051787694E-012
   384000.000000000  0.000000000000000  6.880644884591125E-005  1.387778780781446E-015 -2.109423746787797E-013
   400000.000000000  0.000000000000000  1.461628274052726E-004  0.000000000000000 -2.708944180085382E-013
   416000.000000000  0.000000000000000  6.880644884590414E-005 -5.068861996804230E-014 -6.034062138837726E-013
   432000.000000000  0.000000000000000  1.385310167402448E-004  0.000000000000000  9.237055564881302E-013
   448000.000000000  0.000000000000000  6.082887108911138E-005  8.881784197001252E-015 -4.440892098500626E-013
   464000.000000000  0.000000000000000  1.385326103761019E-004  0.000000000000000  2.553512956637860E-013
   480000.000000000  0.000000000000000  6.880283439317036E-005  2.602085213965211E-015 -4.513056595101261E-013
   496000.000000000  0.000000000000000  1.461317658483288E-004  0.000000000000000 -2.634559237435496E-012
   512000.000000000  0.000000000000000  6.401559437311787E-005 -1.598721155460225E-013 -1.385558334732195E-012
   528000.000000000  0.000000000000000  1.207062687563635E-004  0.000000000000000  0.000000000000000
   544000.000000000  0.000000000000000  5.860102941583180E-005 -2.220446049250313E-015 -1.065814103640150E-013
   560000.000000000  0.000000000000000  1.385326162715567E-004  0.000000000000000  1.110223024625157E-015
   576000.000000000  0.000000000000000  6.881573209411409E-005  1.387778780781446E-016 -1.443289932012704E-014
   592000.000000000  0.000000000000000  1.462345762245234E-004  0.000000000000000 -6.661338147750939E-015
   608000.000000000  0.000000000000000  7.134735858998101E-005 -6.938893903907228E-017 -4.440892098500626E-015
   624000.000000000  0.000000000000000  1.574002330273651E-004  0.000000000000000  0.000000000000000
   640000.000000000  0.000000000000000  7.534935631459900E-005  2.710505431213761E-019 -2.081668171172169E-016
   656000.000000000  0.000000000000000  1.589849158266657E-004  0.000000000000000 -2.775557561562891E-016
   672000.000000000  0.000000000000000  7.514658947583087E-005  0.000000000000000 -1.387778780781446E-016
   688000.000000000  0.000000000000000  1.589849158266311E-004  0.000000000000000 -2.775557561562891E-016
   704000.000000000  0.000000000000000  7.514658947582655E-005  0.000000000000000 -1.387778780781446E-016
   720000.000000000  0.000000000000000  1.589849158266311E-004  0.000000000000000 -2.775557561562891E-016
   736000.000000000  0.000000000000000  7.514658947582655E-005  0.000000000000000 -1.387778780781446E-016
   752000.000000000  0.000000000000000  1.589849158266311E-004  0.000000000000000 -2.775557561562891E-016
   768000.000000000  0.000000000000000  7.514658947582655E-005  0.000000000000000 -1.387778780781446E-016
   784000.000000000  0.000000000000000  1.589849158266311E-004  0.000000000000000 -2.775557561562891E-016
   800000.000000000  0.000000000000000  7.514658947582655E-005  0.000000000000000 -1.387778780781446E-016
   816000.000000000  0.000000000000000  1.589849158266311E-004  0.000000000000000 -2.775557561562891E-016
   832000.000000000  0.000000000000000  7.514658947582655E-005  0.000000000000000 -1.387778780781446E-016
   848000.000000000  0.000000000000000  1.589849158266311E-004  0.000000000000000 -2.775557561562891E-016
   864000.000000000  0.000000000000000  7.514658947582655E-005  0.000000000000000 -1.387778780781446E-016
   880000.000000000  0.000000000000000  1.589849158266311E-004  0.000000000000000 -2.775557561562891E-016
   896000.000000000  0.000000000000000  7.514658947582655E-005  0.000000000000000 -1.387778780781446E-016
   912000.000000000  0.000000000000000  1.589849158266311E-004  0.000000000000000 -2.775557561562891E-016
   928000.000000000  0.000000000000000  7.514658947582655E-005  0.000000000000000 -1.387778780781446E-016
   944000.000000000  0.000000000000000  1.589849158266311E-004  0.000000000000000 -2.775557561562891E-016
   960000.000000000  0.000000000000000  7.514658947582655E-005  0.000000000000000 -1.387778780781446E-016
   976000.000000000  0.000000000000000  1.589849158266311E-004  0.000000000000000 -2.775557561562891E-016
   992000.000000000  0.000000000000000  7.514658947582655E-005  0.000000000000000 -1.387778780781446E-016
   1008000.00000000  0.000000000000000  1.589849158266311E-004  0.000000000000000 -2.775557561562891E-016
   1024000.00000000  0.000000000000000  7.514658947582655E-005  0.000000000000000 -1.387778780781446E-016
   1040000.00000000  0.000000000000000  1.589849158266311E-004  0.000000000000000 -2.775557561562891E-016
   1056000.00000000  0.000000000000000  7.514658947582655E-005  0.000000000000000 -1.387778780781446E-016
   1072000.00000000  0.000000000000000  1.589849158266311E-004  0.000000000000000 -2.775557561562891E-016
   1088000.00000000  0.000000000000000  7.514658947582655E-005  0.000000000000000 -1.387778780781446E-016
   1104000.00000000  0.000000000000000  1.589849158266311E-004  0.000000000000000 -2.775557561562891E-016
   1120000.00000000  0.000000000000000  7.514658947582655E-005  0.000000000000000 -1.387778780781446E-016
   1136000.00000000  0.000000000000000  1.589849158266311E-004  0.000000000000000 -2.775557561562891E-016
   1152000.00000000  0.000000000000000  7.514658947582655E-005  0.000000000000000 -1.387778780781446E-016
   1168000.00000000  0.000000000000000  1.589849158266311E-004  0.000000000000000 -2.775557561562891E-016
   1184000.00000000  0.000000000000000  7.514658947582655E-005  0.000000000000000 -1.387778780781446E-016
   1200000.00000000  0.000000000000000  1.589849158266311E-004  0.000000000000000 -2.775557561562891E-016
   1216000.00000000  0.000000000000000  7.514658947582655E-005  0.000000000000000 -1.387778780781446E-016
   1232000.00000000  0.000000000000000  1.589849158266311E-004  0.000000000000000 -2.775557561562891E-016
   1248000.00000000  0.000000000000000  7.514658947582655E-005  0.000000000000000 -1.387778780781446E-016
   1264000.00000000  0.000000000000000  1.589849158266311E-004  0.000000000000000 -2.775557561562891E-016
   1280000.00000000  0.000000000000000  7.514658947582655E-005  0.000000000000000 -1.387778780781446E-016
   1296000.00000000  0.000000000000000  1.589849158266311E-004  0.000000000000000 -2.775557561562891E-016
   1312000.00000000  0.000000000000000  7.514658947582655E-005  0.000000000000000 -1.387778780781446E-016
   1328000.00000000  0.000000000000000  1.589849158266311E-004  0.000000000000000 -2.775557561562891E-016
   1344000.00000000  0.000000000000000  7.514658947582655E-005  0.000000000000000 -1.387778780781446E-016
   1360000.00000000  0.000000000000000  1.589849158266311E-004  0.000000000000000 -2.775557561562891E-016
   1376000.00000000  0.000000000000000  7.514658947582655E-005  0.000000000000000 -1.387778780781446E-016
   1392000.00000000  0.000000000000000  1.589849158266311E-004  0.000000000000000 -2.775557561562891E-016
   1408000.00000000  0.000000000000000  7.514658947582655E-005  0.000000000000000 -1.387778780781446E-016
   1424000.00000000  0.000000000000000  1.589849158266311E-004  0.000000000000000 -2.775557561562891E-016
   1440000.00000000  0.000000000000000  7.514658947582655E-005  0.000000000000000 -1.387778780781446E-016
   1456000.00000000  0.000000000000000  1.589849158266311E-004  0.000000000000000 -2.775557561562891E-016
   1472000.00000000  0.000000000000000  7.514658947582655E-005  0.000000000000000 -1.387778780781446E-016
   1488000.00000000  0.000000000000000  1.589849158266311E-004  0.000000000000000 -2.775557561562891E-016
   1504000.00000000  0.000000000000000  7.514658947582655E-005  0.000000000000000 -1.387778780781446E-016
   1520000.00000000  0.000000000000000  1.589849158266311E-004  0.000000000000000 -2.775557561562891E-016
   1536000.00000000  0.000000000000000  7.514658947582655E-005  0.000000000000000 -1.387778780781446E-016
   1552000.00000000  0.000000000000000  1.589849158266311E-004  0.000000000000000 -2.775557561562891E-016
   1568000.00000000  0.000000000000000  7.514658947582655E-005  0.000000000000000 -1.387778780781446E-016
   1584000.00000000  0.000000000000000  1.589849158266311E-004  0.000000000000000 -2.775557561562891E-016
   1600000.00000000  0.000000000000000  1.502931789516530E-004 -5.421010862427522E-019 -1.387778780781446E-016
 zone f="point",i=  101
   0.000000000000000  0.000000000000000  1.300369082735616E-004  8.373616671130931E-007 -4.166350135451774E-005
   16000.0000000000  0.000000000000000  1.394298313800355E-004  5.488815644068236E-007  7.325175882533230E-010
   32000.0000000000  0.000000000000000  6.501874953869140E-005  1.144559029801415E-012  1.831327971213437E-010
   48000.0000000000  0.000000000000000  1.394299277147750E-004  0.000000000000000 -2.775557561562891E-016
   64000.0000000000  0.000000000000000  6.501876158094304E-005  0.000000000000000 -1.387778780781446E-016
   80000.0000000000  0.000000000000000  1.394299277147750E-004  0.000000000000000 -2.775557561562891E-016
   96000.0000000000  0.000000000000000  6.501876158094304E-005  0.000000000000000 -1.387778780781446E-016
   112000.000000000  0.000000000000000  1.394299277147750E-004  0.000000000000000 -2.775557561562891E-016
   128000.000000000  0.000000000000000  6.501876158096414E-005  0.000000000000000 -1.387778780781446E-016
   144000.000000000  0.000000000000000  1.394299277149439E-004  0.000000000000000 -2.775557561562891E-016
   160000.000000000  0.000000000000000  6.528920225795231E-005 -8.131516293641283E-019  3.469446951953614E-017
   176000.000000000  0.000000000000000  1.387662418180202E-004  0.000000000000000  7.126244039312724E-014
   192000.000000000  0.000000000000000  6.250178625732672E-005  9.714451465470120E-016 -3.719247132494274E-014
   208000.000000000  0.000000000000000  1.318556982357856E-004  0.000000000000000 -6.217248937900877E-014
   224000.000000000  0.000000000000000  6.033750208199082E-005 -2.151057110211241E-014 -2.375877272697835E-013
   240000.000000000  0.000000000000000  1.207684247498397E-004  0.000000000000000  4.973799150320701E-013
   256000.000000000  0.000000000000000  4.961301024432583E-005  1.776356839400250E-014 -2.557953848736361E-012
   272000.000000000  0.000000000000000  9.894344868035898E-005  0.000000000000000 -4.263256414560601E-013
   288000.000000000  0.000000000000000  5.497340590786097E-005  1.196265309033606E-013 -2.163824674994430E-012
   304000.000000000  0.000000000000000  1.318556608230548E-004  0.000000000000000 -8.371081605673680E-013
   320000.000000000  0.000000000000000  6.033749740311273E-005 -1.098773849683710E-013 -2.142175326014240E-012
   336000.000000000  0.000000000000000  1.207684247322477E-004  0.000000000000000 -7.815970093361102E-013
   352000.000000000  0.000000000000000  5.233880201708845E-005  1.998401444325282E-013 -3.161915174132446E-012
   368000.000000000  0.000000000000000  1.207494218307021E-004  0.000000000000000 -3.365085987638849E-012
   384000.000000000  0.000000000000000  6.033425033042634E-005  1.318389841742373E-015 -2.342570581959080E-013
   400000.000000000  0.000000000000000  1.318557029861768E-004  0.000000000000000 -2.775557561562891E-013
   416000.000000000  0.000000000000000  6.033425033047926E-005 -4.864164626638967E-014 -5.684341886080801E-013
   432000.000000000  0.000000000000000  1.207494218312964E-004  0.000000000000000  9.237055564881302E-013
   448000.000000000  0.000000000000000  5.233895813648511E-005  2.220446049250313E-014 -7.105427357601002E-013
   464000.000000000  0.000000000000000  1.207684270641649E-004  0.000000000000000  1.110223024625157E-015
   480000.000000000  0.000000000000000  6.032001260100881E-005  2.636779683484747E-015 -5.861977570020827E-013
   496000.000000000  0.000000000000000  1.317157825712883E-004  0.000000000000000 -2.925437669887287E-012
   512000.000000000  0.000000000000000  5.469878388574886E-005 -1.754152378907747E-013 -1.527666881884215E-012
   528000.000000000  0.000000000000000  9.894347462285490E-005  0.000000000000000  0.000000000000000
   544000.000000000  0.000000000000000  4.961750054737871E-005 -2.220446049250313E-015 -1.065814103640150E-013
   560000.000000000  0.000000000000000  1.207686040756434E-004  0.000000000000000  1.110223024625157E-015
   576000.000000000  0.000000000000000  6.036351992611936E-005  1.387778780781446E-016 -1.998401444325282E-014
   592000.000000000  0.000000000000000  1.320604506564232E-004  0.000000000000000 -6.661338147750939E-015
   608000.000000000  0.000000000000000  6.292922220349292E-005 -6.938893903907228E-017 -4.440892098500626E-015
   624000.000000000  0.000000000000000  1.390313797462703E-004  0.000000000000000  0.000000000000000
   640000.000000000  0.000000000000000  6.532302015437517E-005  2.710505431213761E-019 -2.081668171172169E-016
   656000.000000000  0.000000000000000  1.394299277149511E-004  0.000000000000000 -2.775557561562891E-016
   672000.000000000  0.000000000000000  6.501876158096505E-005  0.000000000000000 -1.387778780781446E-016
   688000.000000000  0.000000000000000  1.394299277147750E-004  0.000000000000000 -2.775557561562891E-016
   704000.000000000  0.000000000000000  6.501876158094304E-005  0.000000000000000 -1.387778780781446E-016
   720000.000000000  0.000000000000000  1.394299277147750E-004  0.000000000000000 -2.775557561562891E-016
   736000.000000000  0.000000000000000  6.501876158094304E-005  0.000000000000000 -1.387778780781446E-016
   752000.000000000  0.000000000000000  1.394299277147750E-004  0.000000000000000 -2.775557561562891E-016
   768000.000000000  0.000000000000000  6.501876158094304E-005  0.000000000000000 -1.387778780781446E-016
   784000.000000000  0.000000000000000  1.394299277147750E-004  0.000000000000000 -2.775557561562891E-016
   800000.000000000  0.000000000000000  6.501876158094304E-005  0.000000000000000 -1.387778780781446E-016
   816000.000000000  0.000000000000000  1.394299277147750E-004  0.000000000000000 -2.775557561562891E-016
   832000.000000000  0.000000000000000  6.501876158094304E-005  0.000000000000000 -1.387778780781446E-016
   848000.000000000  0.000000000000000  1.394299277147750E-004  0.000000000000000 -2.775557561562891E-016
   864000.000000000  0.000000000000000  6.501876158094304E-005  0.000000000000000 -1.387778780781446E-016
   880000.000000000  0.000000000000000  1.394299277147750E-004  0.000000000000000 -2.775557561562891E-016
   896000.000000000  0.000000000000000  6.501876158094304E-005  0.000000000000000 -1.387778780781446E-016
   912000.000000000  0.000000000000000  1.394299277147750E-004  0.000000000000000 -2.775557561562891E-016
   928000.000000000  0.000000000000000  6.501876158094304E-005  0.000000000000000 -1.387778780781446E-016
   944000.000000000  0.000000000000000  1.394299277147750E-004  0.000000000000000 -2.775557561562891E-016
   960000.000000000  0.000000000000000  6.501876158094304E-005  0.000000000000000 -1.387778780781446E-016
   976000.000000000  0.000000000000000  1.394299277147750E-004  0.000000000000000 -2.775557561562891E-016
   992000.000000000  0.000000000000000  6.501876158094304E-005  0.000000000000000 -1.387778780781446E-016
   1008000.00000000  0.000000000000000  1.394299277147750E-004  0.000000000000000 -2.775557561562891E-016
   1024000.00000000  0.000000000000000  6.501876158094304E-005  0.000000000000000 -1.387778780781446E-016
   1040000.00000000  0.000000000000000  1.394299277147750E-004  0.000000000000000 -2.775557561562891E-016
   1056000.00000000  0.000000000000000  6.501876158094304E-005  0.000000000000000 -1.387778780781446E-016
   1072000.00000000  0.000000000000000  1.394299277147750E-004  0.000000000000000 -2.775557561562891E-016
   1088000.00000000  0.000000000000000  6.501876158094304E-005  0.000000000000000 -1.387778780781446E-016
   1104000.00000000  0.000000000000000  1.394299277147750E-004  0.000000000000000 -2.775557561562891E-016
   1120000.00000000  0.000000000000000  6.501876158094304E-005  0.000000000000000 -1.387778780781446E-016
   1136000.00000000  0.000000000000000  1.394299277147750E-004  0.000000000000000 -2.775557561562891E-016
   1152000.00000000  0.000000000000000  6.501876158094304E-005  0.000000000000000 -1.387778780781446E-016
   1168000.00000000  0.000000000000000  1.394299277147750E-004  0.000000000000000 -2.775557561562891E-016
   1184000.00000000  0.000000000000000  6.501876158094304E-005  0.000000000000000 -1.387778780781446E-016
   1200000.00000000  0.000000000000000  1.394299277147750E-004  0.000000000000000 -2.775557561562891E-016
   1216000.00000000  0.000000000000000  6.501876158094304E-005  0.000000000000000 -1.387778780781446E-016
   1232000.00000000  0.000000000000000  1.394299277147750E-004  0.000000000000000 -2.775557561562891E-016
   1248000.00000000  0.000000000000000  6.501876158094304E-005  0.000000000000000 -1.387778780781446E-016
   1264000.00000000  0.000000000000000  1.394299277147750E-004  0.000000000000000 -2.775557561562891E-016
   1280000.00000000  0.000000000000000  6.501876158094304E-005  0.000000000000000 -1.387778780781446E-016
   1296000.00000000  0.000000000000000  1.394299277147750E-004  0.000000000000000 -2.775557561562891E-016
   1312000.00000000  0.000000000000000  6.501876158094304E-005  0.000000000000000 -1.387778780781446E-016
   1328000.00000000  0.000000000000000  1.394299277147750E-004  0.000000000000000 -2.775557561562891E-016
   1344000.00000000  0.000000000000000  6.501876158094304E-005  0.000000000000000 -1.387778780781446E-016
   1360000.00000000  0.000000000000000  1.394299277147750E-004  0.000000000000000 -2.775557561562891E-016
   1376000.00000000  0.000000000000000  6.501876158094304E-005  0.000000000000000 -1.387778780781446E-016
   1392000.00000000  0.000000000000000  1.394299277147750E-004  0.000000000000000 -2.775557561562891E-016
   1408000.00000000  0.000000000000000  6.501876158094304E-005  0.000000000000000 -1.387778780781446E-016
   1424000.00000000  0.000000000000000  1.394299277147750E-004  0.000000000000000 -2.775557561562891E-016
   1440000.00000000  0.000000000000000  6.501876158094304E-005  0.000000000000000 -1.387778780781446E-016
   1456000.00000000  0.000000000000000  1.394299277147750E-004  0.000000000000000 -2.775557561562891E-016
   1472000.00000000  0.000000000000000  6.501876158094304E-005  0.000000000000000 -1.387778780781446E-016
   1488000.00000000  0.000000000000000  1.394299277147750E-004  0.000000000000000 -2.775557561562891E-016
   1504000.00000000  0.000000000000000  6.501876158094304E-005  0.000000000000000 -1.387778780781446E-016
   1520000.00000000  0.000000000000000  1.394299277147750E-004  0.000000000000000 -2.775557561562891E-016
   1536000.00000000  0.000000000000000  6.501876158094304E-005  0.000000000000000 -1.387778780781446E-016
   1552000.00000000  0.000000000000000  1.394299277147750E-004  0.000000000000000 -2.775557561562891E-016
   1568000.00000000  0.000000000000000  6.501876158094304E-005  0.000000000000000 -1.387778780781446E-016
   1584000.00000000  0.000000000000000  1.394299277147750E-004  0.000000000000000 -2.775557561562891E-016
   1600000.00000000  0.000000000000000  1.300375231618861E-004 -5.421010862427522E-019 -1.387778780781446E-016
 zone f="point",i=  101
   0.000000000000000  0.000000000000000  1.174206258223733E-004  5.695689370228333E-007 -1.060964975013040E-004
   16000.0000000000  0.000000000000000  1.254216498788739E-004  8.233223466105065E-007 -9.880248416728465E-005
   32000.0000000000  0.000000000000000  5.871081722899318E-005  3.613652049178127E-007 -2.470039566365017E-005
   48000.0000000000  0.000000000000000  1.254223032934128E-004  0.000000000000000  6.245004513516506E-016
   64000.0000000000  0.000000000000000  5.871089837065644E-005  1.490777987167569E-018  8.673617379884035E-017
   80000.0000000000  0.000000000000000  1.254223032932847E-004  0.000000000000000 -2.775557561562891E-016
   96000.0000000000  0.000000000000000  5.871089837064044E-005  0.000000000000000 -1.387778780781446E-016
   112000.000000000  0.000000000000000  1.254223032932847E-004  0.000000000000000 -2.775557561562891E-016
   128000.000000000  0.000000000000000  5.871089837069114E-005  0.000000000000000 -1.387778780781446E-016
   144000.000000000  0.000000000000000  1.254223032936903E-004  0.000000000000000 -2.775557561562891E-016
   160000.000000000  0.000000000000000  5.900889256102413E-005 -8.131516293641283E-019  3.469446951953614E-017
   176000.000000000  0.000000000000000  1.252543000239617E-004  0.000000000000000  7.126244039312724E-014
   192000.000000000  0.000000000000000  5.676153862216088E-005  1.144917494144693E-015 -3.996802888650564E-014
   208000.000000000  0.000000000000000  1.207868127611106E-004  0.000000000000000 -7.327471962526033E-014
   224000.000000000  0.000000000000000  5.472931599554160E-005 -2.164934898019055E-014 -2.409183963436590E-013
   240000.000000000  0.000000000000000  1.082626992920416E-004  0.000000000000000  4.973799150320701E-013
   256000.000000000  0.000000000000000  4.449966702913309E-005  1.776356839400250E-014 -2.557953848736361E-012
   272000.000000000  0.000000000000000  8.665695453613511E-005  0.000000000000000 -4.263256414560601E-013
   288000.000000000  0.000000000000000  4.963188512773960E-005  1.406166849626800E-013 -2.516320485312917E-012
   304000.000000000  0.000000000000000  1.207867470783948E-004  0.000000000000000 -1.076916333886402E-012
   320000.000000000  0.000000000000000  5.472930773385429E-005 -1.221592271782868E-013 -2.509659147165166E-012
   336000.000000000  0.000000000000000  1.082626988832228E-004  0.000000000000000 -1.421085471520200E-012
   352000.000000000  0.000000000000000  4.719128641794474E-005  1.931788062847772E-013 -3.606004383982508E-012
   368000.000000000  0.000000000000000  1.081897979928497E-004  0.000000000000000 -3.400613124426854E-012
   384000.000000000  0.000000000000000  5.471665949590734E-005  8.673617379884035E-016 -2.259303855112194E-013
   400000.000000000  0.000000000000000  1.207868135322119E-004  0.000000000000000 -2.486899575160351E-013
   416000.000000000  0.000000000000000  5.471665949903335E-005 -4.603956105242446E-014 -5.245803791353865E-013
   432000.000000000  0.000000000000000  1.081897980180388E-004  0.000000000000000  9.237055564881302E-013
   448000.000000000  0.000000000000000  4.719245020098636E-005  2.886579864025407E-014 -7.460698725481052E-013
   464000.000000000  0.000000000000000  1.082627291981358E-004  0.000000000000000 -7.438494264988549E-014
   480000.000000000  0.000000000000000  5.469128721967649E-005  2.636779683484747E-015 -6.528111384795920E-013
   496000.000000000  0.000000000000000  1.204825605857087E-004  0.000000000000000 -3.071987109137808E-012
   512000.000000000  0.000000000000000  4.911534060423488E-005 -1.865174681370263E-013 -1.705302565824240E-012
   528000.000000000  0.000000000000000  8.665697386823053E-005  0.000000000000000  0.000000000000000
   544000.000000000  0.000000000000000  4.451960128591550E-005 -2.220446049250313E-015 -1.065814103640150E-013
   560000.000000000  0.000000000000000  1.082639385851762E-004  0.000000000000000  1.110223024625157E-015
   576000.000000000  0.000000000000000  5.477463116919768E-005  1.387778780781446E-016 -2.331468351712829E-014
   592000.000000000  0.000000000000000  1.211372442352945E-004  0.000000000000000 -6.661338147750939E-015
   608000.000000000  0.000000000000000  5.739031517867283E-005 -6.938893903907228E-017 -4.440892098500626E-015
   624000.000000000  0.000000000000000  1.256944781373255E-004  0.000000000000000  0.000000000000000
   640000.000000000  0.000000000000000  5.906503676482197E-005  2.710505431213761E-019 -2.081668171172169E-016
   656000.000000000  0.000000000000000  1.254223032937098E-004  0.000000000000000 -2.775557561562891E-016
   672000.000000000  0.000000000000000  5.871089837069357E-005  0.000000000000000 -1.387778780781446E-016
   688000.000000000  0.000000000000000  1.254223032932847E-004  0.000000000000000 -2.775557561562891E-016
   704000.000000000  0.000000000000000  5.871089837064044E-005  0.000000000000000 -1.387778780781446E-016
   720000.000000000  0.000000000000000  1.254223032932847E-004  0.000000000000000 -2.775557561562891E-016
   736000.000000000  0.000000000000000  5.871089837064044E-005  0.000000000000000 -1.387778780781446E-016
   752000.000000000  0.000000000000000  1.254223032932847E-004  0.000000000000000 -2.775557561562891E-016
   768000.000000000  0.000000000000000  5.871089837064044E-005  0.000000000000000 -1.387778780781446E-016
   784000.000000000  0.000000000000000  1.254223032932847E-004  0.000000000000000 -2.775557561562891E-016
   800000.000000000  0.000000000000000  5.871089837064044E-005  0.000000000000000 -1.387778780781446E-016
   816000.000000000  0.000000000000000  1.254223032932847E-004  0.000000000000000 -2.775557561562891E-016
   832000.000000000  0.000000000000000  5.871089837064044E-005  0.000000000000000 -1.387778780781446E-016
   848000.000000000  0.000000000000000  1.254223032932847E-004  0.000000000000000 -2.775557561562891E-016
   864000.000000000  0.000000000000000  5.871089837064044E-005  0.000000000000000 -1.387778780781446E-016
   880000.000000000  0.000000000000000  1.254223032932847E-004  0.000000000000000 -2.775557561562891E-016
   896000.000000000  0.000000000000000  5.871089837064044E-005  0.000000000000000 -1.387778780781446E-016
   912000.000000000  0.000000000000000  1.254223032932847E-004  0.000000000000000 -2.775557561562891E-016
   928000.000000000  0.000000000000000  5.871089837064044E-005  0.000000000000000 -1.387778780781446E-016
   944000.000000000  0.000000000000000  1.254223032932847E-004  0.000000000000000 -2.775557561562891E-016
   960000.000000000  0.000000000000000  5.871089837064044E-005  0.000000000000000 -1.387778780781446E-016
   976000.000000000  0.000000000000000  1.254223032932847E-004  0.000000000000000 -2.775557561562891E-016
   992000.000000000  0.000000000000000  5.871089837064044E-005  0.000000000000000 -1.387778780781446E-016
   1008000.00000000  0.000000000000000  1.254223032932847E-004  0.000000000000000 -2.775557561562891E-016
   1024000.00000000  0.000000000000000  5.871089837064044E-005  0.000000000000000 -1.387778780781446E-016
   1040000.00000000  0.000000000000000  1.254223032932847E-004  0.000000000000000 -2.775557561562891E-016
   1056000.00000000  0.000000000000000  5.871089837064044E-005  0.000000000000000 -1.387778780781446E-016
   1072000.00000000  0.000000000000000  1.254223032932847E-004  0.000000000000000 -2.775557561562891E-016
   1088000.00000000  0.000000000000000  5.871089837064044E-005  0.000000000000000 -1.387778780781446E-016
   1104000.00000000  0.000000000000000  1.254223032932847E-004  0.000000000000000 -2.775557561562891E-016
   1120000.00000000  0.000000000000000  5.871089837064044E-005  0.000000000000000 -1.387778780781446E-016
   1136000.00000000  0.000000000000000  1.254223032932847E-004  0.000000000000000 -2.775557561562891E-016
   1152000.00000000  0.000000000000000  5.871089837064044E-005  0.000000000000000 -1.387778780781446E-016
   1168000.00000000  0.000000000000000  1.254223032932847E-004  0.000000000000000 -2.775557561562891E-016
   1184000.00000000  0.000000000000000  5.871089837064044E-005  0.000000000000000 -1.387778780781446E-016
   1200000.00000000  0.000000000000000  1.254223032932847E-004  0.000000000000000 -2.775557561562891E-016