 title = "surface data"
 variables = "x (m)","jz (mw/m*m)",                       "qx(m/yr)", "qz(m/yr)"
 zone f="point",i=  101
   0.000000000000000  0.000000000000000  1.502929161311223E-004  4.005693057937062E-007 -2.372978059994590E-005
   16000.0000000000  0.000000000000000  1.589848827654462E-004  2.744407822036828E-007  1.807781702112266E-010
   32000.0000000000  0.000000000000000  7.514658534308443E-005  2.824665143712907E-013  4.519492419197135E-011
   48000.0000000000  0.000000000000000  1.589849158266311E-004  0.000000000000000 -2.775557561562891E-016
   64000.0000000000  0.000000000000000  7.514658947582655E-005  0.000000000000000 -1.387778780781446E-016
   80000.0000000000  0.000000000000000  1.589849158266311E-004  0.000000000000000 -2.775557561562891E-016
   96000.0000000000  0.000000000000000  7.514658947582655E-005  0.000000000000000 -1.387778780781446E-016
   112000.000000000  0.000000000000000  1.589849158266311E-004  0.000000000000000 -2.775557561562891E-016
   128000.000000000  0.000000000000000  7.514658947583078E-005  0.000000000000000 -1.387778780781446E-016
   144000.000000000  0.000000000000000  1.589849158266649E-004  0.000000000000000 -2.775557561562891E-016
   160000.000000000  0.000000000000000  7.533845466838492E-005 -2.710505431213761E-019 -6.938893903907228E-017
   176000.000000000  0.000000000000000  1.573147617526514E-004  0.000000000000000  0.000000000000000
   192000.000000000  0.000000000000000  7.117493816636087E-005  1.040834085586084E-016 -1.665334536937735E-015
   208000.000000000  0.000000000000000  1.461646800299784E-004  0.000000000000000 -6.661338147750939E-015
   224000.000000000  0.000000000000000  6.881787077205559E-005 -4.406197628981090E-015 -1.282307593442056E-013
   240000.000000000  0.000000000000000  1.386199818638074E-004  0.000000000000000 -7.105427357601002E-014
   256000.000000000  0.000000000000000  5.890594021945139E-005 -8.881784197001252E-015 -7.105427357601002E-013
   272000.000000000  0.000000000000000  1.207062446517124E-004  0.000000000000000  4.973799150320701E-013
   288000.000000000  0.000000000000000  6.401559141553180E-005 -7.206041319207657E-014  1.340594302234877E-012
   304000.000000000  0.000000000000000  1.461317658342639E-004  0.000000000000000  5.462297281155770E-013
   320000.000000000  0.000000000000000  6.880295771576764E-005  4.964778588245622E-014  5.978550987606468E-013
   336000.000000000  0.000000000000000  1.385335969701514E-004  0.000000000000000 -7.105427357601002E-013
   352000.000000000  0.000000000000000  6.082176743987231E-005 -8.881784197001252E-015  1.421085471520200E-013
   368000.000000000  0.000000000000000  1.384002210206969E-004  0.000000000000000 -2.198241588757810E-013
   384000.000000000  0.000000000000000  6.877414914356733E-005  1.630640067418199E-014 -5.484501741648273E-013
   400000.000000000  0.000000000000000  1.461624208912988E-004  0.000000000000000 -1.056932319443149E-012
   416000.000000000  0.000000000000000  6.877415834452685E-005 -2.740863092043355E-014 -1.965094753586527E-013
   432000.000000000  0.000000000000000  1.384002941211222E-004  0.000000000000000  9.237055564881302E-013
   448000.000000000  0.000000000000000  6.111770838053309E-005  2.220446049250313E-014  8.526512829121202E-013
   464000.000000000  0.000000000000000  1.386199817215839E-004  0.000000000000000 -2.919886554764162E-013
   480000.000000000  0.000000000000000  6.841294220575788E-005  4.510281037539698E-016 -2.348121697082206E-013
   496000.000000000  0.000000000000000  1.429252666190730E-004  0.000000000000000 -8.038014698286133E-013
   512000.000000000  0.000000000000000  6.161688258107361E-005 -5.995204332975845E-014  6.750155989720952E-013
   528000.000000000  0.000000000000000  1.207068505147541E-004  0.000000000000000  1.421085471520200E-012
   544000.000000000  0.000000000000000  5.890641988544317E-005  3.330669073875470E-014  4.973799150320701E-013
   560000.000000000  0.000000000000000  1.386230585044201E-004  0.000000000000000 -2.209343819004062E-013
   576000.000000000  0.000000000000000  6.871125114694748E-005 -9.020562075079397E-016  4.440892098500626E-015
   592000.000000000  0.000000000000000  1.484201608886708E-004  0.000000000000000  3.663735981263017E-014
   608000.000000000  0.000000000000000  7.394260477360897E-005  9.025983085941824E-016  3.099950851570554E-014
   624000.000000000  0.000000000000000  1.589849238401563E-004  0.000000000000000 -3.469446951953614E-016
   640000.000000000  0.000000000000000  7.514659047752873E-005 -2.710505431213761E-019 -1.561251128379126E-016
   656000.000000000  0.000000000000000  1.589849158266311E-004  0.000000000000000 -2.775557561562891E-016
   672000.000000000  0.000000000000000  7.514658947582655E-005  0.000000000000000 -1.387778780781446E-016
   688000.000000000  0.000000000000000  1.589849158266311E-004  0.000000000000000 -2.775557561562891E-016
   704000.000000000  0.000000000000000  7.514658947582655E-005  0.000000000000000 -1.387778780781446E-016
   720000.000000000  0.000000000000000  1.589849158266311E-004  0.000000000000000 -2.775557561562891E-016
   736000.000000000  0.000000000000000  7.514658947582655E-005  0.000000000000000 -1.387778780781446E-016
   752000.000000000  0.000000000000000  1.589849158266311E-004  0.000000000000000 -2.775557561562891E-016
   768000.000000000  0.000000000000000  7.514658947582655E-005  0.000000000000000 -1.387778780781446E-016
   784000.000000000  0.000000000000000  1.589849158266311E-004  0.000000000000000 -2.775557561562891E-016
   800000.000000000  0.000000000000000  7.514658947582655E-005  0.000000000000000 -1.387778780781446E-016
   816000.000000000  0.000000000000000  1.589849158266311E-004  0.000000000000000 -2.775557561562891E-016
   832000.000000000  0.000000000000000  7.514658947582655E-005  0.000000000000000 -1.387778780781446E-016
   848000.000000000  0.000000000000000  1.589849158266311E-004  0.000000000000000 -2.775557561562891E-016
   864000.000000000  0.000000000000000  7.514658947582655E-005  0.000000000000000 -1.387778780781446E-016
   880000.000000000  0.000000000000000  1.589849158266311E-004  0.000000000000000 -2.775557561562891E-016
   896000.000000000  0.000000000000000  7.514658947582655E-005  0.000000000000000 -1.387778780781446E-016
   912000.000000000  0.000000000000000  1.589849158266311E-004  0.000000000000000 -2.775557561562891E-016
   928000.000000000  0.000000000000000  7.514658947582655E-005  0.000000000000000 -1.387778780781446E-016
   944000.000000000  0.000000000000000  1.589849158266311E-004  0.000000000000000 -2.775557561562891E-016
   960000.000000000  0.000000000000000  7.514658947582655E-005  0.000000000000000 -1.387778780781446E-016
   976000.000000000  0.000000000000000  1.589849158266311E-004  0.000000000000000 -2.775557561562891E-016
   992000.000000000  0.000000000000000  7.514658947582655E-005  0.000000000000000 -1.387778780781446E-016
   1008000.00000000  0.000000000000000  1.589849158266311E-004  0.000000000000000 -2.775557561562891E-016
   1024000.00000000  0.000000000000000  7.514658947582655E-005  0.000000000000000 -1.387778780781446E-016
   1040000.00000000  0.000000000000000  1.589849158266311E-004  0.000000000000000 -2.775557561562891E-016
   1056000.00000000  0.000000000000000  7.514658947582655E-005  0.000000000000000 -1.387778780781446E-016
   1072000.00000000  0.000000000000000  1.589849158266311E-004  0.000000000000000 -2.775557561562891E-016
   1088000.00000000  0.000000000000000  7.514658947582655E-005  0.000000000000000 -1.387778780781446E-016
   1104000.00000000  0.000000000000000  1.589849158266311E-004  0.000000000000000 -2.775557561562891E-016
   1120000.00000000  0.000000000000000  7.514658947582655E-005  0.000000000000000 -1.387778780781446E-016
   1136000.00000000  0.000000000000000  1.589849158266311E-004  0.000000000000000 -2.775557561562891E-016
   1152000.00000000  0.000000000000000  7.514658947582655E-005  0.000000000000000 -1.387778780781446E-016
   1168000.00000000  0.000000000000000  1.589849158266311E-004  0.000000000000000 -2.775557561562891E-016
   1184000.00000000  0.000000000000000  7.514658947582655E-005  0.000000000000000 -1.387778780781446E-016
   1200000.00000000  0.000000000000000  1.589849158266311E-004  0.000000000000000 -2.775557561562891E-016
   1216000.00000000  0.000000000000000  7.514658947582655E-005  0.000000000000000 -1.387778780781446E-016
   1232000.00000000  0.000000000000000  1.589849158266311E-004  0.000000000000000 -2.775557561562891E-016
   1248000.00000000  0.000000000000000  7.514658947582655E-005  0.000000000000000 -1.387778780781446E-016
   1264000.00000000  0.000000000000000  1.589849158266311E-004  0.000000000000000 -2.775557561562891E-016
   1280000.00000000  0.000000000000000  7.514658947582655E-005  0.000000000000000 -1.387778780781446E-016
   1296000.00000000  0.000000000000000  1.589849158266311E-004  0.000000000000000 -2.775557561562891E-016
   1312000.00000000  0.000000000000000  7.514658947582655E-005  0.000000000000000 -1.387778780781446E-016
   1328000.00000000  0.000000000000000  1.589849158266311E-004  0.000000000000000 -2.775557561562891E-016
   1344000.00000000  0.000000000000000  7.514658947582655E-005  0.000000000000000 -1.387778780781446E-016
   1360000.00000000  0.000000000000000  1.589849158266311E-004  0.000000000000000 -2.775557561562891E-016
   1376000.00000000  0.000000000000000  7.514658947582655E-005  0.000000000000000 -1.387778780781446E-016
   1392000.00000000  0.000000000000000  1.589849158266311E-004  0.000000000000000 -2.775557561562891E-016
   1408000.00000000  0.000000000000000  7.514658947582655E-005  0.000000000000000 -1.387778780781446E-016
   1424000.00000000  0.000000000000000  1.589849158266311E-004  0.000000000000000 -2.775557561562891E-016
   1440000.00000000  0.000000000000000  7.514658947582655E-005  0.000000000000000 -1.387778780781446E-016
   1456000.00000000  0.000000000000000  1.589849158266311E-004  0.000000000000000 -2.775557561562891E-016
   1472000.00000000  0.000000000000000  7.514658947582655E-005  0.000000000000000 -1.387778780781446E-016
   1488000.00000000  0.000000000000000  1.589849158266311E-004  0.000000000000000 -2.775557561562891E-016
   1504000.00000000  0.000000000000000  7.514658947582655E-005  0.000000000000000 -1.387778780781446E-016
   1520000.00000000  0.000000000000000  1.589849158266311E-004  0.000000000000000 -2.775557561562891E-016
   1536000.00000000  0.000000000000000  7.514658947582655E-005  0.000000000000000 -1.387778780781446E-016
   1552000.00000000  0.000000000000000  1.589849158266311E-004  0.000000000000000 -2.775557561562891E-016
   1568000.00000000  0.000000000000000  7.514658947582655E-005  0.000000000000000 -1.387778780781446E-016
   1584000.00000000  0.000000000000000  1.589849158266311E-004  0.000000000000000 -2.775557561562891E-016
   1600000.00000000  0.000000000000000  1.502931789516530E-004 -5.421010862427522E-019 -1.387778780781446E-016
 zone f="point",i=  101
   0.000000000000000  0.000000000000000  1.300369082735616E-004  8.373616671130931E-007 -4.166350135451774E-005
   16000.0000000000  0.000000000000000  1.394298313800355E-004  5.488815644068236E-007  7.325175882533230E-010
   32000.0000000000  0.000000000000000  6.501874953869140E-005  1.144559029801415E-012  1.831327971213437E-010
   48000.0000000000  0.000000000000000  1.394299277147750E-004  0.000000000000000 -2.775557561562891E-016
   64000.0000000000  0.000000000000000  6.501876158094304E-005  0.000000000000000 -1.387778780781446E-016
   80000.0000000000  0.000000000000000  1.394299277147750E-004  0.000000000000000 -2.775557561562891E-016
   96000.0000000000  0.000000000000000  6.501876158094304E-005  0.000000000000000 -1.387778780781446E-016
   112000.000000000  0.000000000000000  1.394299277147750E-004  0.000000000000000 -2.775557561562891E-016
   128000.000000000  0.000000000000000  6.501876158096451E-005  0.000000000000000 -1.387778780781446E-016
   144000.000000000  0.000000000000000  1.394299277149468E-004  0.000000000000000 -2.775557561562891E-016
   160000.000000000  0.000000000000000  6.529165418011444E-005 -2.710505431213761E-019 -6.938893903907228E-017
   176000.000000000  0.000000000000000  1.387854646953527E-004  0.000000000000000  0.000000000000000
   192000.000000000  0.000000000000000  6.251589011897210E-005  1.040834085586084E-016 -1.665334536937735E-015
   208000.000000000  0.000000000000000  1.318655636140801E-004  0.000000000000000 -6.661338147750939E-015
   224000.000000000  0.000000000000000  6.038171383678270E-005 -4.406197628981090E-015 -1.282307593442056E-013
   240000.000000000  0.000000000000000  1.211121408461910E-004  0.000000000000000 -7.105427357601002E-014
   256000.000000000  0.000000000000000  5.042360502168262E-005 -8.881784197001252E-015 -7.105427357601002E-013
   272000.000000000  0.000000000000000  9.894392210814658E-005  0.000000000000000  4.973799150320701E-013
   288000.000000000  0.000000000000000  5.469884295962165E-005 -7.879114027886658E-014  1.451616604697392E-012
   304000.000000000  0.000000000000000  1.317157814359239E-004  0.000000000000000  6.994405055138486E-013
   320000.000000000  0.000000000000000  6.032150288944851E-005  5.634381849972669E-014  7.094325127354750E-013
   336000.000000000  0.000000000000000  1.207803507195547E-004  0.000000000000000 -7.105427357601002E-013
   352000.000000000  0.000000000000000  5.233802400426413E-005 -6.661338147750939E-015  1.065814103640150E-013
   368000.000000000  0.000000000000000  1.202554902915510E-004  0.000000000000000 -2.919886554764162E-013
   384000.000000000  0.000000000000000  6.019928159859243E-005  1.974115315661606E-014 -6.877831637552845E-013
   400000.000000000  0.000000000000000  1.318499489195205E-004  0.000000000000000 -1.278976924368180E-012
   416000.000000000  0.000000000000000  6.019952072715192E-005 -3.413935800722356E-014 -3.064215547965432E-013
   432000.000000000  0.000000000000000  1.202573732123145E-004  0.000000000000000  9.237055564881302E-013
   448000.000000000  0.000000000000000  5.308818208303540E-005  3.108624468950438E-014  7.815970093361102E-013
   464000.000000000  0.000000000000000  1.211121352762830E-004  0.000000000000000 -4.385380947269368E-013
   480000.000000000  0.000000000000000  5.975583689997317E-005  3.122502256758253E-016 -2.736699755701011E-013
   496000.000000000  0.000000000000000  1.268587743941096E-004  0.000000000000000 -8.038014698286133E-013
   512000.000000000  0.000000000000000  5.206268669227085E-005 -5.995204332975845E-014  6.750155989720952E-013
   528000.000000000  0.000000000000000  9.895425281704616E-005  0.000000000000000  1.421085471520200E-012
   544000.000000000  0.000000000000000  5.042724296378870E-005  3.330669073875470E-014  4.973799150320701E-013
   560000.000000000  0.000000000000000  1.211273625733593E-004  0.000000000000000 -2.209343819004062E-013
   576000.000000000  0.000000000000000  6.026875741487188E-005 -9.020562075079397E-016  4.440892098500626E-015
   592000.000000000  0.000000000000000  1.333571568568870E-004  0.000000000000000  3.663735981263017E-014
   608000.000000000  0.000000000000000  6.446583750557128E-005  9.025983085941824E-016  3.099950851570554E-014
   624000.000000000  0.000000000000000  1.394299464222529E-004  0.000000000000000 -3.469446951953614E-016
   640000.000000000  0.000000000000000  6.501876391942874E-005 -2.710505431213761E-019 -1.561251128379126E-016
   656000.000000000  0.000000000000000  1.394299277147750E-004  0.000000000000000 -2.775557561562891E-016
   672000.000000000  0.000000000000000  6.501876158094304E-005  0.000000000000000 -1.387778780781446E-016
   688000.000000000  0.000000000000000  1.394299277147750E-004  0.000000000000000 -2.775557561562891E-016
   704000.000000000  0.000000000000000  6.501876158094304E-005  0.000000000000000 -1.387778780781446E-016
   720000.000000000  0.000000000000000  1.394299277147750E-004  0.000000000000000 -2.775557561562891E-016
   736000.000000000  0.000000000000000  6.501876158094304E-005  0.000000000000000 -1.387778780781446E-016
   752000.000000000  0.000000000000000  1.394299277147750E-004  0.000000000000000 -2.775557561562891E-016
   768000.000000000  0.000000000000000  6.501876158094304E-005  0.000000000000000 -1.387778780781446E-016
   784000.000000000  0.000000000000000  1.394299277147750E-004  0.000000000000000 -2.775557561562891E-016
   800000.000000000  0.000000000000000  6.501876158094304E-005  0.000000000000000 -1.387778780781446E-016
   816000.000000000  0.000000000000000  1.394299277147750E-004  0.000000000000000 -2.775557561562891E-016
   832000.000000000  0.000000000000000  6.501876158094304E-005  0.000000000000000 -1.387778780781446E-016
   848000.000000000  0.000000000000000  1.394299277147750E-004  0.000000000000000 -2.775557561562891E-016
   864000.000000000  0.000000000000000  6.501876158094304E-005  0.000000000000000 -1.387778780781446E-016
   880000.000000000  0.000000000000000  1.394299277147750E-004  0.000000000000000 -2.775557561562891E-016
   896000.000000000  0.000000000000000  6.501876158094304E-005  0.000000000000000 -1.387778780781446E-016
   912000.000000000  0.000000000000000  1.394299277147750E-004  0.000000000000000 -2.775557561562891E-016
   928000.000000000  0.000000000000000  6.501876158094304E-005  0.000000000000000 -1.387778780781446E-016
   944000.000000000  0.000000000000000  1.394299277147750E-004  0.000000000000000 -2.775557561562891E-016
   960000.000000000  0.000000000000000  6.501876158094304E-005  0.000000000000000 -1.387778780781446E-016
   976000.000000000  0.000000000000000  1.394299277147750E-004  0.000000000000000 -2.775557561562891E-016
   992000.000000000  0.000000000000000  6.501876158094304E-005  0.000000000000000 -1.387778780781446E-016
   1008000.00000000  0.000000000000000  1.394299277147750E-004  0.000000000000000 -2.775557561562891E-016
   1024000.00000000  0.000000000000000  6.501876158094304E-005  0.000000000000000 -1.387778780781446E-016
   1040000.00000000  0.000000000000000  1.394299277147750E-004  0.000000000000000 -2.775557561562891E-016
   1056000.00000000  0.000000000000000  6.501876158094304E-005  0.000000000000000 -1.387778780781446E-016
   1072000.00000000  0.000000000000000  1.394299277147750E-004  0.000000000000000 -2.775557561562891E-016
   1088000.00000000  0.000000000000000  6.501876158094304E-005  0.000000000000000 -1.387778780781446E-016
   1104000.00000000  0.000000000000000  1.394299277147750E-004  0.000000000000000 -2.775557561562891E-016
   1120000.00000000  0.000000000000000  6.501876158094304E-005  0.000000000000000 -1.387778780781446E-016
   1136000.00000000  0.000000000000000  1.394299277147750E-004  0.000000000000000 -2.775557561562891E-016
   1152000.00000000  0.000000000000000  6.501876158094304E-005  0.000000000000000 -1.387778780781446E-016
   1168000.00000000  0.000000000000000  1.394299277147750E-004  0.000000000000000 -2.775557561562891E-016
   1184000.00000000  0.000000000000000  6.501876158094304E-005  0.000000000000000 -1.387778780781446E-016
   1200000.00000000  0.000000000000000  1.394299277147750E-004  0.000000000000000 -2.775557561562891E-016
   1216000.00000000  0.000000000000000  6.501876158094304E-005  0.000000000000000 -1.387778780781446E-016
   1232000.00000000  0.000000000000000  1.394299277147750E-004  0.000000000000000 -2.775557561562891E-016
   1248000.00000000  0.000000000000000  6.501876158094304E-005  0.000000000000000 -1.387778780781446E-016
   1264000.00000000  0.000000000000000  1.394299277147750E-004  0.000000000000000 -2.775557561562891E-016
   1280000.00000000  0.000000000000000  6.501876158094304E-005  0.000000000000000 -1.387778780781446E-016
   1296000.00000000  0.000000000000000  1.394299277147750E-004  0.000000000000000 -2.775557561562891E-016
   1312000.00000000  0.000000000000000  6.501876158094304E-005  0.000000000000000 -1.387778780781446E-016
   1328000.00000000  0.000000000000000  1.394299277147750E-004  0.000000000000000 -2.775557561562891E-016
   1344000.00000000  0.000000000000000  6.501876158094304E-005  0.000000000000000 -1.387778780781446E-016
   1360000.00000000  0.000000000000000  1.394299277147750E-004  0.000000000000000 -2.775557561562891E-016
   1376000.00000000  0.000000000000000  6.501876158094304E-005  0.000000000000000 -1.387778780781446E-016
   1392000.00000000  0.000000000000000  1.394299277147750E-004  0.000000000000000 -2.775557561562891E-016
   1408000.00000000  0.000000000000000  6.501876158094304E-005  0.000000000000000 -1.387778780781446E-016
   1424000.00000000  0.000000000000000  1.394299277147750E-004  0.000000000000000 -2.775557561562891E-016
   1440000.00000000  0.000000000000000  6.501876158094304E-005  0.000000000000000 -1.387778780781446E-016
   1456000.00000000  0.000000000000000  1.394299277147750E-004  0.000000000000000 -2.775557561562891E-016
   1472000.00000000  0.000000000000000  6.501876158094304E-005  0.000000000000000 -1.387778780781446E-016
   1488000.00000000  0.000000000000000  1.394299277147750E-004  0.000000000000000 -2.775557561562891E-016
   1504000.00000000  0.000000000000000  6.501876158094304E-005  0.000000000000000 -1.387778780781446E-016
   1520000.00000000  0.000000000000000  1.394299277147750E-004  0.000000000000000 -2.775557561562891E-016
   1536000.00000000  0.000000000000000  6.501876158094304E-005  0.000000000000000 -1.387778780781446E-016
   1552000.00000000  0.000000000000000  1.394299277147750E-004  0.000000000000000 -2.775557561562891E-016
   1568000.00000000  0.000000000000000  6.501876158094304E-005  0.000000000000000 -1.387778780781446E-016
   1584000.00000000  0.000000000000000  1.394299277147750E-004  0.000000000000000 -2.775557561562891E-016
   1600000.00000000  0.000000000000000  1.300375231618861E-004 -5.421010862427522E-019 -1.387778780781446E-016
 zone f="point",i=  101
   0.000000000000000  0.000000000000000  1.174206258223733E-004  5.695689370228333E-007 -1.060964975013040E-004
   16000.0000000000  0.000000000000000  1.254216498788739E-004  8.233223466105065E-007 -9.880248416728465E-005
   32000.0000000000  0.000000000000000  5.871081722899318E-005  3.613652049178127E-007 -2.470039566365017E-005
   48000.0000000000  0.000000000000000  1.254223032934128E-004  0.000000000000000  6.245004513516506E-016
   64000.0000000000  0.000000000000000  5.871089837065644E-005  1.490777987167569E-018  8.673617379884035E-017
   80000.0000000000  0.000000000000000  1.254223032932847E-004  0.000000000000000 -2.775557561562891E-016
   96000.0000000000  0.000000000000000  5.871089837064044E-005  0.000000000000000 -1.387778780781446E-016
   112000.000000000  0.000000000000000  1.254223032932847E-004  0.000000000000000 -2.775557561562891E-016
   128000.000000000  0.000000000000000  5.871089837069293E-005  0.000000000000000 -1.387778780781446E-016
   144000.000000000  0.000000000000000  1.254223032937046E-004  0.000000000000000 -2.775557561562891E-016
   160000.000000000  0.000000000000000  5.901449553640219E-005 -2.710505431213761E-019 -6.938893903907228E-017
   176000.000000000  0.000000000000000  1.252982262070058E-004  0.000000000000000  0.000000000000000
   192000.000000000  0.000000000000000  5.679493431133195E-005  1.040834085586084E-016 -1.665334536937735E-015
   208000.000000000  0.000000000000000  1.208117269319755E-004  0.000000000000000 -6.661338147750939E-015
   224000.000000000  0.000000000000000  5.481561156047793E-005 -4.406197628981090E-015 -1.282307593442056E-013
   240000.000000000  0.000000000000000  1.089274415854454E-004  0.000000000000000 -7.105427357601002E-014
   256000.000000000  0.000000000000000  4.567857303804033E-005 -8.881784197001252E-015 -7.105427357601002E-013
   272000.000000000  0.000000000000000  8.666115344650713E-005  0.000000000000000  4.973799150320701E-013
   288000.000000000  0.000000000000000  4.911589865900754E-005 -7.934625179117916E-014  1.460498388894393E-012
   304000.000000000  0.000000000000000  1.204825450884058E-004  0.000000000000000  7.349676423018536E-013
   320000.000000000  0.000000000000000  5.469704817783516E-005  5.797445856714489E-014  7.366329768387914E-013
   336000.000000000  0.000000000000000  1.083088360663176E-004  0.000000000000000 -7.105427357601002E-013
   352000.000000000  0.000000000000000  4.722157722030502E-005 -6.661338147750939E-015  1.065814103640150E-013
   368000.000000000  0.000000000000000  1.072519831021902E-004  0.000000000000000 -2.919886554764162E-013
   384000.000000000  0.000000000000000  5.443839997479045E-005  2.046973701652632E-014 -7.183142969324763E-013
   400000.000000000  0.000000000000000  1.207611625539401E-004  0.000000000000000 -1.325606291402437E-012
   416000.000000000  0.000000000000000  5.443972792638325E-005 -3.486794186713382E-014 -3.180788965551073E-013
   432000.000000000  0.000000000000000  1.072622944922663E-004  0.000000000000000  9.237055564881302E-013
   448000.000000000  0.000000000000000  4.825570069370104E-005  3.552713678800501E-014  7.815970093361102E-013
   464000.000000000  0.000000000000000  1.089273925106031E-004  0.000000000000000 -4.396483177515620E-013
   480000.000000000  0.000000000000000  5.406494197384806E-005  2.775557561562891E-016 -2.797762022055394E-013
   496000.000000000  0.000000000000000  1.148077104048405E-004  0.000000000000000 -8.038014698286133E-013
   512000.000000000  0.000000000000000  4.649753853633707E-005 -5.995204332975845E-014  6.750155989720952E-013
   528000.000000000  0.000000000000000  8.670737611501798E-005  0.000000000000000  1.421085471520200E-012
   544000.000000000  0.000000000000000  4.569133550295513E-005  3.330669073875470E-014  4.973799150320701E-013
   560000.000000000  0.000000000000000  1.089634624676143E-004  0.000000000000000 -2.209343819004062E-013
   576000.000000000  0.000000000000000  5.474736842467074E-005 -9.020562075079397E-016  4.440892098500626E-015
   592000.000000000  0.000000000000000  1.219419772636625E-004  0.000000000000000  3.663735981263017E-014
   608000.000000000  0.000000000000000  5.848713671731426E-005  9.025983085941824E-016  3.099950851570554E-014
   624000.000000000  0.000000000000000  1.254223320613159E-004  0.000000000000000 -3.469446951953614E-016
   640000.000000000  0.000000000000000  5.871090196675742E-005 -2.710505431213761E-019 -1.561251128379126E-016
   656000.000000000  0.000000000000000  1.254223032932847E-004  0.000000000000000 -2.775557561562891E-016
   672000.000000000  0.000000000000000  5.871089837064044E-005  0.000000000000000 -1.387778780781446E-016
   688000.000000000  0.000000000000000  1.254223032932847E-004  0.000000000000000 -2.775557561562891E-016
   704000.000000000  0.000000000000000  5.871089837064044E-005  0.000000000000000 -1.387778780781446E-016
   720000.000000000  0.000000000000000  1.254223032932847E-004  0.000000000000000 -2.775557561562891E-016
   736000.000000000  0.000000000000000  5.871089837064044E-005  0.000000000000000 -1.387778780781446E-016
   752000.000000000  0.000000000000000  1.254223032932847E-004  0.000000000000000 -2.775557561562891E-016
   768000.000000000  0.000000000000000  5.871089837064044E-005  0.000000000000000 -1.387778780781446E-016
   784000.000000000  0.000000000000000  1.254223032932847E-004  0.000000000000000 -2.775557561562891E-016
   800000.000000000  0.000000000000000  5.871089837064044E-005  0.000000000000000 -1.387778780781446E-016
   816000.000000000  0.000000000000000  1.254223032932847E-004  0.000000000000000 -2.775557561562891E-016
   832000.000000000  0.000000000000000  5.871089837064044E-005  0.000000000000000 -1.387778780781446E-016
   848000.000000000  0.000000000000000  1.254223032932847E-004  0.000000000000000 -2.775557561562891E-016
   864000.000000000  0.000000000000000  5.871089837064044E-005  0.000000000000000 -1.387778780781446E-016
   880000.000000000  0.000000000000000  1.254223032932847E-004  0.000000000000000 -2.775557561562891E-016
   896000.000000000  0.000000000000000  5.871089837064044E-005  0.000000000000000 -1.387778780781446E-016
   912000.000000000  0.000000000000000  1.254223032932847E-004  0.000000000000000 -2.775557561562891E-016
   928000.000000000  0.000000000000000  5.871089837064044E-005  0.000000000000000 -1.387778780781446E-016
   944000.000000000  0.000000000000000  1.254223032932847E-004  0.000000000000000 -2.775557561562891E-016
   960000.000000000  0.000000000000000  5.871089837064044E-005  0.000000000000000 -1.387778780781446E-016
   976000.000000000  0.000000000000000  1.254223032932847E-004  0.000000000000000 -2.775557561562891E-016
   992000.000000000  0.000000000000000  5.871089837064044E-005  0.000000000000000 -1.387778780781446E-016
   1008000.00000000  0.000000000000000  1.254223032932847E-004  0.000000000000000 -2.775557561562891E-016
   1024000.00000000  0.000000000000000  5.871089837064044E-005  0.000000000000000 -1.387778780781446E-016
   1040000.00000000  0.000000000000000  1.254223032932847E-004  0.000000000000000 -2.775557561562891E-016
   1056000.00000000  0.000000000000000  5.871089837064044E-005  0.000000000000000 -1.387778780781446E-016
   1072000.00000000  0.000000000000000  1.254223032932847E-004  0.000000000000000 -2.775557561562891E-016
   1088000.00000000  0.000000000000000  5.871089837064044E-005  0.000000000000000 -1.387778780781446E-016
   1104000.00000000  0.000000000000000  1.254223032932847E-004  0.000000000000000 -2.775557561562891E-016
   1120000.00000000  0.000000000000000  5.871089837064044E-005  0.000000000000000 -1.387778780781446E-016
   1136000.00000000  0.000000000000000  1.254223032932847E-004  0.000000000000000 -2.775557561562891E-016
   1152000.00000000  0.000000000000000  5.871089837064044E-005  0.000000000000000 -1.387778780781446E-016
   1168000.00000000  0.000000000000000  1.254223032932847E-004  0.000000000000000 -2.775557561562891E-016
   1184000.00000000  0.000000000000000  5.871089837064044E-005  0.000000000000000 -1.387778780781446E-016
   1200000.00000000  0.000000000000000  1.254223032932847E-004  0.000000000000000 -2.775557561562891E-016