title = "elemental data"
variables = "time (yr)", "temp (deg. c)","qx(m/yr)","qz(m/yr)","x(m)","z(m)","mat","head(m)"
text  x=50.0,y=50.0,t="element # 12831 "
zone f="point",i=  3000
   10.0000000000000  24.1457796897012  4.618527782440651E-014  5.684341886080801E-014  245333.333333333  99433.3333333334  3  99999.9999999994
   20.0000000000000  24.1457778755639  7.460698725481052E-014  5.684341886080801E-014  245333.333333333  99433.3333333334  3  99999.9999999993
   30.0000000000000  24.1457724515272  8.526512829121202E-014  5.684341886080801E-014  245333.333333333  99433.3333333334  3  99999.9999999993
   40.0000000000000  24.1457599980237  8.171241461241152E-014  0.000000000000000  245333.333333333  99433.3333333334  3  99999.9999999992
   50.0000000000000  24.1457357299359  8.526512829121202E-014  0.000000000000000  245333.333333333  99433.3333333334  3  99999.9999999992
   60.0000000000000  24.1456934966142  8.526512829121202E-014  0.000000000000000  245333.333333333  99433.3333333334  3  99999.9999999992
   70.0000000000000  24.1456258627940  8.526512829121202E-014  0.000000000000000  245333.333333333  99433.3333333334  3  99999.9999999992
   80.0000000000000  24.1455242493690  8.881784197001252E-014  0.000000000000000  245333.333333333  99433.3333333334  3  99999.9999999992
   90.0000000000000  24.1453791138956  8.881784197001252E-014  0.000000000000000  245333.333333333  99433.3333333334  3  99999.9999999992
   100.000000000000  24.1451801532431  9.237055564881302E-014  0.000000000000000  245333.333333333  99433.3333333334  3  99999.9999999992
   110.000000000000  24.1449165139948  9.237055564881302E-014  0.000000000000000  245333.333333333  99433.3333333334  3  99999.9999999992
   120.000000000000  24.1445769994666  9.237055564881302E-014  0.000000000000000  245333.333333333  99433.3333333334  3  99999.9999999992
   130.000000000000  24.1441502652355  9.237055564881302E-014  0.000000000000000  245333.333333333  99433.3333333334  3  99999.9999999992
   140.000000000000  24.1436249976806  9.237055564881302E-014  0.000000000000000  245333.333333333  99433.3333333334  3  99999.9999999992
   150.000000000000  24.1429900722098  9.237055564881302E-014  0.000000000000000  245333.333333333  99433.3333333334  3  99999.9999999992
   160.000000000000  24.1422346895531  9.237055564881302E-014  0.000000000000000  245333.333333333  99433.3333333334  3  99999.9999999992
   170.000000000000  24.1413484898115  9.237055564881302E-014  0.000000000000000  245333.333333333  99433.3333333334  3  99999.9999999992
   180.000000000000  24.1403216449006  9.592326932761353E-014  0.000000000000000  245333.333333333  99433.3333333334  3  99999.9999999992
   190.000000000000  24.1391449306807  9.592326932761353E-014  0.000000000000000  245333.333333333  99433.3333333334  3  99999.9999999992
   200.000000000000  24.1378097804862  9.592326932761353E-014  0.000000000000000  245333.333333333  99433.3333333334  3  99999.9999999992
   210.000000000000  24.1363083219974  9.592326932761353E-014  0.000000000000000  245333.333333333  99433.3333333334  3  99999.9999999992
   220.000000000000  24.1346333994917  9.592326932761353E-014  0.000000000000000  245333.333333333  99433.3333333334  3  99999.9999999992
   230.000000000000  24.1327785834986  9.592326932761353E-014  0.000000000000000  245333.333333333  99433.3333333334  3  99999.9999999992
   240.000000000000  24.1307381698031  9.592326932761353E-014  0.000000000000000  245333.333333333  99433.3333333334  3  99999.9999999992
   250.000000000000  24.1285071696124  9.592326932761353E-014  0.000000000000000  245333.333333333  99433.3333333334  3  99999.9999999992
   260.000000000000  24.1260812925426  9.592326932761353E-014  0.000000000000000  245333.333333333  99433.3333333334  3  99999.9999999992
   270.000000000000  24.1234569239116  9.592326932761353E-014  0.000000000000000  245333.333333333  99433.3333333334  3  99999.9999999992
   280.000000000000  24.1206310976490  9.592326932761353E-014  0.000000000000000  245333.333333333  99433.3333333334  3  99999.9999999992
   290.000000000000  24.1176014659627  9.592326932761353E-014  0.000000000000000  245333.333333333  99433.3333333334  3  99999.9999999992
   300.000000000000  24.1143662667398  9.592326932761353E-014  0.000000000000000  245333.333333333  99433.3333333334  3  99999.9999999992
   310.000000000000  24.1109242895087  9.592326932761353E-014  0.000000000000000  245333.333333333  99433.3333333334  3  99999.9999999992
   320.000000000000  24.1072748406544  9.592326932761353E-014  0.000000000000000  245333.333333333  99433.3333333334  3  99999.9999999992
   330.000000000000  24.1034177084531  9.592326932761353E-014  0.000000000000000  245333.333333333  99433.3333333334  3  99999.9999999992
   340.000000000000  24.0993531283893  9.592326932761353E-014  0.000000000000000  245333.333333333  99433.3333333334  3  99999.9999999992
   350.000000000000  24.0950817491215  9.592326932761353E-014  0.000000000000000  245333.333333333  99433.3333333334  3  99999.9999999992
   360.000000000000  24.0906045993811  9.592326932761353E-014  0.000000000000000  245333.333333333  99433.3333333334  3  99999.9999999992
   370.000000000000  24.0859230560240  9.592326932761353E-014  0.000000000000000  245333.333333333  99433.3333333334  3  99999.9999999992
   380.000000000000  24.0810388133904  9.592326932761353E-014  0.000000000000000  245333.333333333  99433.3333333334  3  99999.9999999992
   390.000000000000  24.0759538540853  9.592326932761353E-014  0.000000000000000  245333.333333333  99433.3333333334  3  99999.9999999992
   400.000000000000  24.0706704212480  9.592326932761353E-014  0.000000000000000  245333.333333333  99433.3333333334  3  99999.9999999992
   410.000000000000  24.0651909923473  9.592326932761353E-014  0.000000000000000  245333.333333333  99433.3333333334  3  99999.9999999992
   420.000000000000  24.0595182545133  9.592326932761353E-014  0.000000000000000  245333.333333333  99433.3333333334  3  99999.9999999992
   430.000000000000  24.0536550813944  9.592326932761353E-014  0.000000000000000  245333.333333333  99433.3333333334  3  99999.9999999992
   440.000000000000  24.0476045115116  9.592326932761353E-014  0.000000000000000  245333.333333333  99433.3333333334  3  99999.9999999992
   450.000000000000  24.0413697280711  9.592326932761353E-014  0.000000000000000  245333.333333333  99433.3333333334  3  99999.9999999992
   460.000000000000  24.0349540401848  9.592326932761353E-014  0.000000000000000  245333.333333333  99433.3333333334  3  99999.9999999992
   470.000000000000  24.0283608654420  9.592326932761353E-014  0.000000000000000  245333.333333333  99433.3333333334  3  99999.9999999992
   480.000000000000  24.0215937137728  9.592326932761353E-014  0.000000000000000  245333.333333333  99433.3333333334  3  99999.9999999992
   490.000000000000  24.0146561725375  9.592326932761353E-014  0.000000000000000  245333.333333333  99433.3333333334  3  99999.9999999992
   500.000000000000  24.0075518927793  9.947598300641403E-014  0.000000000000000  245333.333333333  99433.3333333334  3  99999.9999999992
   510.000000000000  24.0002845765724  9.947598300641403E-014  0.000000000000000  245333.333333333  99433.3333333334  3  99999.9999999992
   520.000000000000  23.9928579654027  9.947598300641403E-014  0.000000000000000  245333.333333333  99433.3333333334  3  99999.9999999992
   530.000000000000  23.9852758295168  1.030286966852145E-013  0.000000000000000  245333.333333333  99433.3333333334  3  99999.9999999992
   540.000000000000  23.9775419581782  1.030286966852145E-013  0.000000000000000  245333.333333333  99433.3333333334  3  99999.9999999992
   550.000000000000  23.9696601507704  1.030286966852145E-013  0.000000000000000  245333.333333333  99433.3333333334  3  99999.9999999992
   560.000000000000  23.9616342086919  1.030286966852145E-013  0.000000000000000  245333.333333333  99433.3333333334  3  99999.9999999992
   570.000000000000  23.9534679279861  1.030286966852145E-013  0.000000000000000  245333.333333333  99433.3333333334  3  99999.9999999992
   580.000000000000  23.9451650926573  1.030286966852145E-013  0.000000000000000  245333.333333333  99433.3333333334  3  99999.9999999992
   590.000000000000  23.9367294686223  1.030286966852145E-013  0.000000000000000  245333.333333333  99433.3333333334  3  99999.9999999992
   600.000000000000  23.9281647982517  1.030286966852145E-013  0.000000000000000  245333.333333333  99433.3333333334  3  99999.9999999992
   610.000000000000  23.9194747954586  1.030286966852145E-013  0.000000000000000  245333.333333333  99433.3333333334  3  99999.9999999992
   620.000000000000  23.9106631412923  1.030286966852145E-013  0.000000000000000  245333.333333333  99433.3333333334  3  99999.9999999992
   630.000000000000  23.9017334800011  1.030286966852145E-013  0.000000000000000  245333.333333333  99433.3333333334  3  99999.9999999992
   640.000000000000  23.8926894155262  1.030286966852145E-013  0.000000000000000  245333.333333333  99433.3333333334  3  99999.9999999992
   650.000000000000  23.8835345083952  1.030286966852145E-013  0.000000000000000  245333.333333333  99433.3333333334  3  99999.9999999992
   660.000000000000  23.8742722729827  1.030286966852145E-013  0.000000000000000  245333.333333333  99433.3333333334  3  99999.9999999992
   670.000000000000  23.8649061751104  1.030286966852145E-013  0.000000000000000  245333.333333333  99433.3333333334  3  99999.9999999992
   680.000000000000  23.8554396299585  1.030286966852145E-013  0.000000000000000  245333.333333333  99433.3333333334  3  99999.9999999992
   690.000000000000  23.8458760002639  1.030286966852145E-013  0.000000000000000  245333.333333333  99433.3333333334  3  99999.9999999992
   700.000000000000  23.8362185947818  1.030286966852145E-013  0.000000000000000  245333.333333333  99433.3333333334  3  99999.9999999992
   710.000000000000  23.8264706669890  1.030286966852145E-013  0.000000000000000  245333.333333333  99433.3333333334  3  99999.9999999992
   720.000000000000  23.8166354140091  1.030286966852145E-013  0.000000000000000  245333.333333333  99433.3333333334  3  99999.9999999992
   730.000000000000  23.8067159757396  1.030286966852145E-013  0.000000000000000  245333.333333333  99433.3333333334  3  99999.9999999992
   740.000000000000  23.7967154341661  1.030286966852145E-013  0.000000000000000  245333.333333333  99433.3333333334  3  99999.9999999992
   750.000000000000  23.7866368128445  1.030286966852145E-013  0.000000000000000  245333.333333333  99433.3333333334  3  99999.9999999992
   760.000000000000  23.7764830765394  1.030286966852145E-013  0.000000000000000  245333.333333333  99433.3333333334  3  99999.9999999992
   770.000000000000  23.7662571310022  1.030286966852145E-013  0.000000000000000  245333.333333333  99433.3333333334  3  99999.9999999992
   780.000000000000  23.7559618228782  1.030286966852145E-013  0.000000000000000  245333.333333333  99433.3333333334  3  99999.9999999992
   790.000000000000  23.7455999397300  1.030286966852145E-013  0.000000000000000  245333.333333333  99433.3333333334  3  99999.9999999992
   800.000000000000  23.7351742101664  1.030286966852145E-013  0.000000000000000  245333.333333333  99433.3333333334  3  99999.9999999992
   810.000000000000  23.7246873040664  1.030286966852145E-013  0.000000000000000  245333.333333333  99433.3333333334  3  99999.9999999992
   820.000000000000  23.7141418328902  1.030286966852145E-013  0.000000000000000  245333.333333333  99433.3333333334  3  99999.9999999992
   830.000000000000  23.7035403500673  1.030286966852145E-013  0.000000000000000  245333.333333333  99433.3333333334  3  99999.9999999992
   840.000000000000  23.6928853514542  1.030286966852145E-013  0.000000000000000  245333.333333333  99433.3333333334  3  99999.9999999992
   850.000000000000  23.6821792758546  1.030286966852145E-013  0.000000000000000  245333.333333333  99433.3333333334  3  99999.9999999992
   860.000000000000  23.6714245055954  1.030286966852145E-013  0.000000000000000  245333.333333333  99433.3333333334  3  99999.9999999992
   870.000000000000  23.6606233671517  1.030286966852145E-013  0.000000000000000  245333.333333333  99433.3333333334  3  99999.9999999992
   880.000000000000  23.6497781318157  1.030286966852145E-013  0.000000000000000  245333.333333333  99433.3333333334  3  99999.9999999992
   890.000000000000  23.6388910164042  1.030286966852145E-013  0.000000000000000  245333.333333333  99433.3333333334  3  99999.9999999992
   900.000000000000  23.6279641839989  1.030286966852145E-013  0.000000000000000  245333.333333333  99433.3333333334  3  99999.9999999992
   910.000000000000  23.6169997447169  1.030286966852145E-013  0.000000000000000  245333.333333333  99433.3333333334  3  99999.9999999992
   920.000000000000  23.6059997565050  1.030286966852145E-013  0.000000000000000  245333.333333333  99433.3333333334  3  99999.9999999992
   930.000000000000  23.5949662259562  1.030286966852145E-013  0.000000000000000  245333.333333333  99433.3333333334  3  99999.9999999992
   940.000000000000  23.5839011091434  1.030286966852145E-013  0.000000000000000  245333.333333333  99433.3333333334  3  99999.9999999992
   950.000000000000  23.5728063124679  1.030286966852145E-013  0.000000000000000  245333.333333333  99433.3333333334  3  99999.9999999992
   960.000000000000  23.5616836935199  1.030286966852145E-013  0.000000000000000  245333.333333333  99433.3333333334  3  99999.9999999992
   970.000000000000  23.5505350619471  1.030286966852145E-013  0.000000000000000  245333.333333333  99433.3333333334  3  99999.9999999992
   980.000000000000  23.5393621803317  1.030286966852145E-013  0.000000000000000  245333.333333333  99433.3333333334  3  99999.9999999992
   990.000000000000  23.5281667650700  1.030286966852145E-013  0.000000000000000  245333.333333333  99433.3333333334  3  99999.9999999992
   1000.00000000000  23.5169504872557  1.030286966852145E-013  0.000000000000000  245333.333333333  99433.3333333334  3  99999.9999999992
   1010.00000000000  23.5057149735636  1.030286966852145E-013  0.000000000000000  245333.333333333  99433.3333333334  3  99999.9999999992
   1020.00000000000  23.4944618071318  1.030286966852145E-013  0.000000000000000  245333.333333333  99433.3333333334  3  99999.9999999992
   1030.00000000000  23.4831925284421  1.030286966852145E-013  0.000000000000000  245333.333333333  99433.3333333334  3  99999.9999999992
   1040.00000000000  23.4719086361959  1.030286966852145E-013  0.000000000000000  245333.333333333  99433.3333333334  3  99999.9999999992
   1050.00000000000  23.4606115881858  1.030286966852145E-013  0.000000000000000  245333.333333333  99433.3333333334  3  99999.9999999992
   1060.00000000000  23.4493028021597  1.030286966852145E-013  0.000000000000000  245333.333333333  99433.3333333334  3  99999.9999999992
   1070.00000000000  23.4379836566796  1.030286966852145E-013  0.000000000000000  245333.333333333  99433.3333333334  3  99999.9999999992
   1080.00000000000  23.4266554919703  1.030286966852145E-013  0.000000000000000  245333.333333333  99433.3333333334  3  99999.9999999992
   1090.00000000000  23.4153196107611  1.030286966852145E-013  0.000000000000000  245333.333333333  99433.3333333334  3  99999.9999999992
   1100.00000000000  23.4039772791167  1.030286966852145E-013  0.000000000000000  245333.333333333  99433.3333333334  3  99999.9999999992
   1110.00000000000  23.3926297272585  1.030286966852145E-013  0.000000000000000  245333.333333333  99433.3333333334  3  99999.9999999992
   1120.00000000000  23.3812781503752  1.030286966852145E-013  0.000000000000000  245333.333333333  99433.3333333334  3  99999.9999999992
   1130.00000000000  23.3699237094222  1.030286966852145E-013  0.000000000000000  245333.333333333  99433.3333333334  3  99999.9999999992
   1140.00000000000  23.3585675319093  1.030286966852145E-013  0.000000000000000  245333.333333333  99433.3333333334  3  99999.9999999992
   1150.00000000000  23.3472107126769  1.030286966852145E-013  0.000000000000000  245333.333333333  99433.3333333334  3  99999.9999999992
   1160.00000000000  23.3358543146592  1.030286966852145E-013  0.000000000000000  245333.333333333  99433.3333333334  3  99999.9999999992
   1170.00000000000  23.3244993696362  1.030286966852145E-013  0.000000000000000  245333.333333333  99433.3333333334  3  99999.9999999992
   1180.00000000000  23.3131468789718  1.030286966852145E-013  0.000000000000000  245333.333333333  99433.3333333334  3  99999.9999999992
   1190.00000000000  23.3017978143400  1.030286966852145E-013  0.000000000000000  245333.333333333  99433.3333333334  3  99999.9999999992
   1200.00000000000  23.2904531184376  1.030286966852145E-013  0.000000000000000  245333.333333333  99433.3333333334  3  99999.9999999992
   1210.00000000000  23.2791137056844  1.030286966852145E-013  0.000000000000000  245333.333333333  99433.3333333334  3  99999.9999999992
   1220.00000000000  23.2677804629100  1.030286966852145E-013  0.000000000000000  245333.333333333  99433.3333333334  3  99999.9999999992
   1230.00000000000  23.2564542500275  1.030286966852145E-013  0.000000000000000  245333.333333333  99433.3333333334  3  99999.9999999992
   1240.00000000000  23.2451359006944  1.030286966852145E-013  0.000000000000000  245333.333333333  99433.3333333334  3  99999.9999999992
   1250.00000000000  23.2338262229604  1.030286966852145E-013  0.000000000000000  245333.333333333  99433.3333333334  3  99999.9999999992
   1260.00000000000  23.2225259999018  1.030286966852145E-013  0.000000000000000  245333.333333333  99433.3333333334  3  99999.9999999992
   1270.00000000000  23.2112359902433  1.030286966852145E-013  0.000000000000000  245333.333333333  99433.3333333334  3  99999.9999999992
   1280.00000000000  23.1999569289671  1.030286966852145E-013  0.000000000000000  245333.333333333  99433.3333333334  3  99999.9999999992
   1290.00000000000  23.1886895279089  1.030286966852145E-013  0.000000000000000  245333.333333333  99433.3333333334  3  99999.9999999992
   1300.00000000000  23.1774344763413  1.030286966852145E-013  0.000000000000000  245333.333333333  99433.3333333334  3  99999.9999999992
   1310.00000000000  23.1661924415448  1.030286966852145E-013  0.000000000000000  245333.333333333  99433.3333333334  3  99999.9999999992
   1320.00000000000  23.1549640693664  1.030286966852145E-013  0.000000000000000  245333.333333333  99433.3333333334  3  99999.9999999992
   1330.00000000000  23.1437499847657  1.030286966852145E-013  0.000000000000000  245333.333333333  99433.3333333334  3  99999.9999999992
   1340.00000000000  23.1325507923494  1.030286966852145E-013  0.000000000000000  245333.333333333  99433.3333333334  3  99999.9999999992
   1350.00000000000  23.1213670768933  1.030286966852145E-013  0.000000000000000  245333.333333333  99433.3333333334  3  99999.9999999992
   1360.00000000000  23.1101994038529  1.030286966852145E-013  0.000000000000000  245333.333333333  99433.3333333334  3  99999.9999999992
   1370.00000000000  23.0990483198625  1.030286966852145E-013  0.000000000000000  245333.333333333  99433.3333333334  3  99999.9999999992
   1380.00000000000  23.0879143532224  1.030286966852145E-013  0.000000000000000  245333.333333333  99433.3333333334  3  99999.9999999992
   1390.00000000000  23.0767980143752  1.030286966852145E-013  0.000000000000000  245333.333333333  99433.3333333334  3  99999.9999999992
   1400.00000000000  23.0656997963714  1.030286966852145E-013  0.000000000000000  245333.333333333  99433.3333333334  3  99999.9999999992
   1410.00000000000  23.0546201753233  1.030286966852145E-013  0.000000000000000  245333.333333333  99433.3333333334  3  99999.9999999992
   1420.00000000000  23.0435596108487  1.030286966852145E-013  0.000000000000000  245333.333333333  99433.3333333334  3  99999.9999999992
   1430.00000000000  23.0325185465045  1.030286966852145E-013  0.000000000000000  245333.333333333  99433.3333333334  3  99999.9999999992
   1440.00000000000  23.0214974102095  1.030286966852145E-013  0.000000000000000  245333.333333333  99433.3333333334  3  99999.9999999992
   1450.00000000000  23.0104966146567  1.030286966852145E-013  0.000000000000000  245333.333333333  99433.3333333334  3  99999.9999999992
   1460.00000000000  22.9995165577172  1.030286966852145E-013  0.000000000000000  245333.333333333  99433.3333333334  3  99999.9999999992
   1470.00000000000  22.9885576228325  1.030286966852145E-013  0.000000000000000  245333.333333333  99433.3333333334  3  99999.9999999992
   1480.00000000000  22.9776201793988  1.030286966852145E-013  0.000000000000000  245333.333333333  99433.3333333334  3  99999.9999999992
   1490.00000000000  22.9667045831413  1.030286966852145E-013  0.000000000000000  245333.333333333  99433.3333333334  3  99999.9999999992
   1500.00000000000  22.9558111764793  1.030286966852145E-013  0.000000000000000  245333.333333333  99433.3333333334  3  99999.9999999992
   1510.00000000000  22.9449402888826  1.030286966852145E-013  0.000000000000000  245333.333333333  99433.3333333334  3  99999.9999999992
   1520.00000000000  22.9340922372192  1.030286966852145E-013  0.000000000000000  245333.333333333  99433.3333333334  3  99999.9999999992
   1530.00000000000  22.9232673260942  1.030286966852145E-013  0.000000000000000  245333.333333333  99433.3333333334  3  99999.9999999992
   1540.00000000000  22.9124658481806  1.030286966852145E-013  0.000000000000000  245333.333333333  99433.3333333334  3  99999.9999999992
   1550.00000000000  22.9016880845414  1.030286966852145E-013  0.000000000000000  245333.333333333  99433.3333333334  3  99999.9999999992
   1560.00000000000  22.8909343049444  1.030286966852145E-013  0.000000000000000  245333.333333333  99433.3333333334  3  99999.9999999992
   1570.00000000000  22.8802047681687  1.030286966852145E-013  0.000000000000000  245333.333333333  99433.3333333334  3  99999.9999999992
   1580.00000000000  22.8694997223033  1.030286966852145E-013  0.000000000000000  245333.333333333  99433.3333333334  3  99999.9999999992
   1590.00000000000  22.8588194050390  1.030286966852145E-013  0.000000000000000  245333.333333333  99433.3333333334  3  99999.9999999992
   1600.00000000000  22.8481640439523  1.030286966852145E-013  0.000000000000000  245333.333333333  99433.3333333334  3  99999.9999999992
   1610.00000000000  22.8375338567822  1.030286966852145E-013  0.000000000000000  245333.333333333  99433.3333333334  3  99999.9999999992
   1620.00000000000  22.8269290517003  1.030286966852145E-013  0.000000000000000  245333.333333333  99433.3333333334  3  99999.9999999992
   1630.00000000000  22.8163498275743  1.030286966852145E-013  0.000000000000000  245333.333333333  99433.3333333334  3  99999.9999999992
   1640.00000000000  22.8057963742237  1.030286966852145E-013  0.000000000000000  245333.333333333  99433.3333333334  3  99999.9999999992
   1650.00000000000  22.7952688726706  1.030286966852145E-013  0.000000000000000  245333.333333333  99433.3333333334  3  99999.9999999992
   1660.00000000000  22.7847674953826  1.030286966852145E-013  0.000000000000000  245333.333333333  99433.3333333334  3  99999.9999999992
   1670.00000000000  22.7742924065106  1.030286966852145E-013  0.000000000000000  245333.333333333  99433.3333333334  3  99999.9999999992
   1680.00000000000  22.7638437621203  1.030286966852145E-013  0.000000000000000  245333.333333333  99433.3333333334  3  99999.9999999992
   1690.00000000000  22.7534217104172  1.030286966852145E-013  0.000000000000000  245333.333333333  99433.3333333334  3  99999.9999999992
   1700.00000000000  22.7430263919665  1.030286966852145E-013  0.000000000000000  245333.333333333  99433.3333333334  3  99999.9999999992
   1710.00000000000  22.7326579399072  1.030286966852145E-013  0.000000000000000  245333.333333333  99433.3333333334  3  99999.9999999992
   1720.00000000000  22.7223164801604  1.030286966852145E-013  0.000000000000000  245333.333333333  99433.3333333334  3  99999.9999999992
   1730.00000000000  22.7120021316329  1.030286966852145E-013  0.000000000000000  245333.333333333  99433.3333333334  3  99999.9999999992
   1740.00000000000  22.7017150064148  1.030286966852145E-013  0.000000000000000  245333.333333333  99433.3333333334  3  99999.9999999992
   1750.00000000000  22.6914552099723  1.030286966852145E-013  0.000000000000000  245333.333333333  99433.3333333334  3  99999.9999999992
   1760.00000000000  22.6812228413359  1.030286966852145E-013  0.000000000000000  245333.333333333  99433.3333333334  3  99999.9999999992
   1770.00000000000  22.6710179932832  1.030286966852145E-013  0.000000000000000  245333.333333333  99433.3333333334  3  99999.9999999992
   1780.00000000000  22.6608407525173  1.030286966852145E-013  0.000000000000000  245333.333333333  99433.3333333334  3  99999.9999999992
   1790.00000000000  22.6506911998405  1.030286966852145E-013  0.000000000000000  245333.333333333  99433.3333333334  3  99999.9999999992
   1800.00000000000  22.6405694103231  1.030286966852145E-013  0.000000000000000  245333.333333333  99433.3333333334  3  99999.9999999992
   1810.00000000000  22.6304754534688  1.030286966852145E-013  0.000000000000000  245333.333333333  99433.3333333334  3  99999.9999999992
   1820.00000000000  22.6204093933749  1.030286966852145E-013  0.000000000000000  245333.333333333  99433.3333333334  3  99999.9999999992
   1830.00000000000  22.6103712888884  1.030286966852145E-013  0.000000000000000  245333.333333333  99433.3333333334  3  99999.9999999992
   1840.00000000000  22.6003611937588  1.030286966852145E-013  0.000000000000000  245333.333333333  99433.3333333334  3  99999.9999999992
   1850.00000000000  22.5903791567859  1.030286966852145E-013  0.000000000000000  245333.333333333  99433.3333333334  3  99999.9999999992
   1860.00000000000  22.5804252219646  1.030286966852145E-013  0.000000000000000  245333.333333333  99433.3333333334  3  99999.9999999992
   1870.00000000000  22.5704994286252  1.030286966852145E-013  0.000000000000000  245333.333333333  99433.3333333334  3  99999.9999999992
   1880.00000000000  22.5606018115709  1.030286966852145E-013  0.000000000000000  245333.333333333  99433.3333333334  3  99999.9999999992
   1890.00000000000  22.5507324012109  1.030286966852145E-013  0.000000000000000  245333.333333333  99433.3333333334  3  99999.9999999992
   1900.00000000000  22.5408912236902  1.030286966852145E-013  0.000000000000000  245333.333333333  99433.3333333334  3  99999.9999999992
   1910.00000000000  22.5310783010165  1.030286966852145E-013  0.000000000000000  245333.333333333  99433.3333333334  3  99999.9999999992
   1920.00000000000  22.5212936511831  1.030286966852145E-013  0.000000000000000  245333.333333333  99433.3333333334  3  99999.9999999992
   1930.00000000000  22.5115372882891  1.030286966852145E-013  0.000000000000000  245333.333333333  99433.3333333334  3  99999.9999999992
   1940.00000000000  22.5018092226560  1.030286966852145E-013  0.000000000000000  245333.333333333  99433.3333333334  3  99999.9999999992
   1950.00000000000  22.4921094609417  1.030286966852145E-013  0.000000000000000  245333.333333333  99433.3333333334  3  99999.9999999992
   1960.00000000000  22.4824380062514  1.030286966852145E-013  0.000000000000000  245333.333333333  99433.3333333334  3  99999.9999999992
   1970.00000000000  22.4727948582448  1.030286966852145E-013  0.000000000000000  245333.333333333  99433.3333333334  3  99999.9999999992
   1980.00000000000  22.4631800132421  1.030286966852145E-013  0.000000000000000  245333.333333333  99433.3333333334  3  99999.9999999992
   1990.00000000000  22.4535934643254  1.030286966852145E-013  0.000000000000000  245333.333333333  99433.3333333334  3  99999.9999999992
   2000.00000000000  22.4440352014388  1.030286966852145E-013  0.000000000000000  245333.333333333  99433.3333333334  3  99999.9999999992
   2010.00000000000  22.4345052114851  1.030286966852145E-013  0.000000000000000  245333.333333333  99433.3333333334  3  99999.9999999992
   2020.00000000000  22.4250034784203  1.030286966852145E-013  0.000000000000000  245333.333333333  99433.3333333334  3  99999.9999999992
   2030.00000000000  22.4155299833455  1.030286966852145E-013  0.000000000000000  245333.333333333  99433.3333333334  3  99999.9999999992
   2040.00000000000  22.4060847045963  1.030286966852145E-013  0.000000000000000  245333.333333333  99433.3333333334  3  99999.9999999992
   2050.00000000000  22.3966676178297  1.030286966852145E-013  0.000000000000000  245333.333333333  99433.3333333334  3  99999.9999999992
   2060.00000000000  22.3872786961094  1.030286966852145E-013  0.000000000000000  245333.333333333  99433.3333333334  3  99999.9999999992
   2070.00000000000  22.3779179099880  1.030286966852145E-013  0.000000000000000  245333.333333333  99433.3333333334  3  99999.9999999992
   2080.00000000000  22.3685852275872  1.030286966852145E-013  0.000000000000000  245333.333333333  99433.3333333334  3  99999.9999999992
   2090.00000000000  22.3592806146764  1.030286966852145E-013  0.000000000000000  245333.333333333  99433.3333333334  3  99999.9999999992
   2100.00000000000  22.3500040347488  1.030286966852145E-013  0.000000000000000  245333.333333333  99433.3333333334  3  99999.9999999992
   2110.00000000000  22.3407554490951  1.030286966852145E-013  0.000000000000000  245333.333333333  99433.3333333334  3  99999.9999999992
   2120.00000000000  22.3315348168761  1.030286966852145E-013  0.000000000000000  245333.333333333  99433.3333333334  3  99999.9999999992
   2130.00000000000  22.3223420951930  1.030286966852145E-013  0.000000000000000  245333.333333333  99433.3333333334  3  99999.9999999992
   2140.00000000000  22.3131772391553  1.030286966852145E-013  0.000000000000000  245333.333333333  99433.3333333334  3  99999.9999999992
   2150.00000000000  22.3040402019477  1.030286966852145E-013  0.000000000000000  245333.333333333  99433.3333333334  3  99999.9999999992