 title = "surface data"
 variables = "x (m)","jz (mw/m*m)",                       "qx(m/yr)", "qz(m/yr)"
 zone f="point",i=  101
   0.000000000000000  0.000000000000000  1.502929161311223E-004  4.005693057937062E-007 -2.372978059994590E-005
   16000.0000000000  0.000000000000000  1.589848827654462E-004  2.744407822036828E-007  1.807781702112266E-010
   32000.0000000000  0.000000000000000  7.514658534308443E-005  2.824665143712907E-013  4.519492419197135E-011
   48000.0000000000  0.000000000000000  1.589849158266311E-004  0.000000000000000 -2.775557561562891E-016
   64000.0000000000  0.000000000000000  7.514658947582655E-005  0.000000000000000 -1.387778780781446E-016
   80000.0000000000  0.000000000000000  1.589849158266311E-004  0.000000000000000 -2.775557561562891E-016
   96000.0000000000  0.000000000000000  7.514658947582655E-005  0.000000000000000 -1.387778780781446E-016
   112000.000000000  0.000000000000000  1.589849158266311E-004  0.000000000000000 -2.775557561562891E-016
   128000.000000000  0.000000000000000  7.514658947583075E-005  0.000000000000000 -1.387778780781446E-016
   144000.000000000  0.000000000000000  1.589849158266647E-004  0.000000000000000 -2.775557561562891E-016
   160000.000000000  0.000000000000000  7.533794373786573E-005 -8.131516293641283E-019  3.469446951953614E-017
   176000.000000000  0.000000000000000  1.573107560275617E-004  0.000000000000000  7.126244039312724E-014
   192000.000000000  0.000000000000000  7.117210466736850E-005  1.734723475976807E-016 -3.330669073875470E-015
   208000.000000000  0.000000000000000  1.461628251983174E-004  0.000000000000000 -6.661338147750939E-015
   224000.000000000  0.000000000000000  6.880671757578023E-005  2.532696274926138E-015 -6.833422716567839E-013
   240000.000000000  0.000000000000000  1.385326161839283E-004  0.000000000000000 -2.344791028008331E-012
   256000.000000000  0.000000000000000  5.860102780273208E-005 -1.021405182655144E-013 -7.815970093361102E-013
   272000.000000000  0.000000000000000  1.207062559396288E-004  0.000000000000000  3.055333763768431E-012
   288000.000000000  0.000000000000000  6.408745427332603E-005 -4.867634073590921E-014  1.755817713444685E-012
   304000.000000000  0.000000000000000  1.461628093651621E-004  0.000000000000000 -2.953193245502916E-013
   320000.000000000  0.000000000000000  6.880671486681543E-005 -2.019218126037003E-014 -1.281197370417431E-012
   336000.000000000  0.000000000000000  1.385326103455086E-004  0.000000000000000 -2.913225216616411E-012
   352000.000000000  0.000000000000000  6.082886729809891E-005 -3.108624468950438E-014 -3.375077994860476E-012
   368000.000000000  0.000000000000000  1.385310167402932E-004  0.000000000000000  1.465494392505207E-013
   384000.000000000  0.000000000000000  6.880644884591231E-005  6.106226635438361E-015 -2.264854970235319E-013
   400000.000000000  0.000000000000000  1.461628274052682E-004  0.000000000000000 -3.819167204710538E-013
   416000.000000000  0.000000000000000  6.880644884543513E-005  8.375244942016025E-014  1.062483434566275E-012
   432000.000000000  0.000000000000000  1.385310167365113E-004  0.000000000000000 -1.136868377216160E-012
   448000.000000000  0.000000000000000  6.082911583093179E-005 -2.220446049250313E-015  4.085620730620576E-013
   464000.000000000  0.000000000000000  1.385326161840832E-004  0.000000000000000 -6.217248937900877E-013
   480000.000000000  0.000000000000000  6.880283511918931E-005 -2.775557561562891E-015  3.519406988061746E-013
   496000.000000000  0.000000000000000  1.461317658484038E-004  0.000000000000000  2.451372438372346E-012
   512000.000000000  0.000000000000000  6.401559437313394E-005  1.776356839400250E-013  3.019806626980426E-013
   528000.000000000  0.000000000000000  1.207062687564219E-004  0.000000000000000 -1.989519660128281E-012
   544000.000000000  0.000000000000000  5.860103304838751E-005 -1.776356839400250E-014  3.375077994860476E-013
   560000.000000000  0.000000000000000  1.385326453311550E-004  0.000000000000000 -4.751754545395670E-013
   576000.000000000  0.000000000000000  6.866902314341214E-005  6.938893903907228E-017 -1.665334536937735E-014
   592000.000000000  0.000000000000000  1.483514137829035E-004  0.000000000000000 -2.442490654175344E-014
   608000.000000000  0.000000000000000  7.392364290656005E-005 -5.553825628556996E-016 -1.894318035766673E-014
   624000.000000000  0.000000000000000  1.589849237392595E-004  0.000000000000000  0.000000000000000
   640000.000000000  0.000000000000000  7.514659046491635E-005  2.710505431213761E-019 -6.938893903907228E-017
   656000.000000000  0.000000000000000  1.589849158266311E-004  0.000000000000000 -2.775557561562891E-016
   672000.000000000  0.000000000000000  7.514658947582655E-005  0.000000000000000 -1.387778780781446E-016
   688000.000000000  0.000000000000000  1.589849158266311E-004  0.000000000000000 -2.775557561562891E-016
   704000.000000000  0.000000000000000  7.514658947582655E-005  0.000000000000000 -1.387778780781446E-016
   720000.000000000  0.000000000000000  1.589849158266311E-004  0.000000000000000 -2.775557561562891E-016
   736000.000000000  0.000000000000000  7.514658947582655E-005  0.000000000000000 -1.387778780781446E-016
   752000.000000000  0.000000000000000  1.589849158266311E-004  0.000000000000000 -2.775557561562891E-016
   768000.000000000  0.000000000000000  7.514658947582655E-005  0.000000000000000 -1.387778780781446E-016
   784000.000000000  0.000000000000000  1.589849158266311E-004  0.000000000000000 -2.775557561562891E-016
   800000.000000000  0.000000000000000  7.514658947582655E-005  0.000000000000000 -1.387778780781446E-016
   816000.000000000  0.000000000000000  1.589849158266311E-004  0.000000000000000 -2.775557561562891E-016
   832000.000000000  0.000000000000000  7.514658947582655E-005  0.000000000000000 -1.387778780781446E-016
   848000.000000000  0.000000000000000  1.589849158266311E-004  0.000000000000000 -2.775557561562891E-016
   864000.000000000  0.000000000000000  7.514658947582655E-005  0.000000000000000 -1.387778780781446E-016
   880000.000000000  0.000000000000000  1.589849158266311E-004  0.000000000000000 -2.775557561562891E-016
   896000.000000000  0.000000000000000  7.514658947582655E-005  0.000000000000000 -1.387778780781446E-016
   912000.000000000  0.000000000000000  1.589849158266311E-004  0.000000000000000 -2.775557561562891E-016
   928000.000000000  0.000000000000000  7.514658947582655E-005  0.000000000000000 -1.387778780781446E-016
   944000.000000000  0.000000000000000  1.589849158266311E-004  0.000000000000000 -2.775557561562891E-016
   960000.000000000  0.000000000000000  7.514658947582655E-005  0.000000000000000 -1.387778780781446E-016
   976000.000000000  0.000000000000000  1.589849158266311E-004  0.000000000000000 -2.775557561562891E-016
   992000.000000000  0.000000000000000  7.514658947582655E-005  0.000000000000000 -1.387778780781446E-016
   1008000.00000000  0.000000000000000  1.589849158266311E-004  0.000000000000000 -2.775557561562891E-016
   1024000.00000000  0.000000000000000  7.514658947582655E-005  0.000000000000000 -1.387778780781446E-016
   1040000.00000000  0.000000000000000  1.589849158266311E-004  0.000000000000000 -2.775557561562891E-016
   1056000.00000000  0.000000000000000  7.514658947582655E-005  0.000000000000000 -1.387778780781446E-016
   1072000.00000000  0.000000000000000  1.589849158266311E-004  0.000000000000000 -2.775557561562891E-016
   1088000.00000000  0.000000000000000  7.514658947582655E-005  0.000000000000000 -1.387778780781446E-016
   1104000.00000000  0.000000000000000  1.589849158266311E-004  0.000000000000000 -2.775557561562891E-016
   1120000.00000000  0.000000000000000  7.514658947582655E-005  0.000000000000000 -1.387778780781446E-016
   1136000.00000000  0.000000000000000  1.589849158266311E-004  0.000000000000000 -2.775557561562891E-016
   1152000.00000000  0.000000000000000  7.514658947582655E-005  0.000000000000000 -1.387778780781446E-016
   1168000.00000000  0.000000000000000  1.589849158266311E-004  0.000000000000000 -2.775557561562891E-016
   1184000.00000000  0.000000000000000  7.514658947582655E-005  0.000000000000000 -1.387778780781446E-016
   1200000.00000000  0.000000000000000  1.589849158266311E-004  0.000000000000000 -2.775557561562891E-016
   1216000.00000000  0.000000000000000  7.514658947582655E-005  0.000000000000000 -1.387778780781446E-016
   1232000.00000000  0.000000000000000  1.589849158266311E-004  0.000000000000000 -2.775557561562891E-016
   1248000.00000000  0.000000000000000  7.514658947582655E-005  0.000000000000000 -1.387778780781446E-016
   1264000.00000000  0.000000000000000  1.589849158266311E-004  0.000000000000000 -2.775557561562891E-016
   1280000.00000000  0.000000000000000  7.514658947582655E-005  0.000000000000000 -1.387778780781446E-016
   1296000.00000000  0.000000000000000  1.589849158266311E-004  0.000000000000000 -2.775557561562891E-016
   1312000.00000000  0.000000000000000  7.514658947582655E-005  0.000000000000000 -1.387778780781446E-016
   1328000.00000000  0.000000000000000  1.589849158266311E-004  0.000000000000000 -2.775557561562891E-016
   1344000.00000000  0.000000000000000  7.514658947582655E-005  0.000000000000000 -1.387778780781446E-016
   1360000.00000000  0.000000000000000  1.589849158266311E-004  0.000000000000000 -2.775557561562891E-016
   1376000.00000000  0.000000000000000  7.514658947582655E-005  0.000000000000000 -1.387778780781446E-016
   1392000.00000000  0.000000000000000  1.589849158266311E-004  0.000000000000000 -2.775557561562891E-016
   1408000.00000000  0.000000000000000  7.514658947582655E-005  0.000000000000000 -1.387778780781446E-016
   1424000.00000000  0.000000000000000  1.589849158266311E-004  0.000000000000000 -2.775557561562891E-016
   1440000.00000000  0.000000000000000  7.514658947582655E-005  0.000000000000000 -1.387778780781446E-016
   1456000.00000000  0.000000000000000  1.589849158266311E-004  0.000000000000000 -2.775557561562891E-016
   1472000.00000000  0.000000000000000  7.514658947582655E-005  0.000000000000000 -1.387778780781446E-016
   1488000.00000000  0.000000000000000  1.589849158266311E-004  0.000000000000000 -2.775557561562891E-016
   1504000.00000000  0.000000000000000  7.514658947582655E-005  0.000000000000000 -1.387778780781446E-016
   1520000.00000000  0.000000000000000  1.589849158266311E-004  0.000000000000000 -2.775557561562891E-016
   1536000.00000000  0.000000000000000  7.514658947582655E-005  0.000000000000000 -1.387778780781446E-016
   1552000.00000000  0.000000000000000  1.589849158266311E-004  0.000000000000000 -2.775557561562891E-016
   1568000.00000000  0.000000000000000  7.514658947582655E-005  0.000000000000000 -1.387778780781446E-016
   1584000.00000000  0.000000000000000  1.589849158266311E-004  0.000000000000000 -2.775557561562891E-016
   1600000.00000000  0.000000000000000  1.502931789516530E-004 -5.421010862427522E-019 -1.387778780781446E-016
 zone f="point",i=  101
   0.000000000000000  0.000000000000000  1.300369082735616E-004  8.373616671130931E-007 -4.166350135451774E-005
   16000.0000000000  0.000000000000000  1.394298313800355E-004  5.488815644068236E-007  7.325175882533230E-010
   32000.0000000000  0.000000000000000  6.501874953869140E-005  1.144559029801415E-012  1.831327971213437E-010
   48000.0000000000  0.000000000000000  1.394299277147750E-004  0.000000000000000 -2.775557561562891E-016
   64000.0000000000  0.000000000000000  6.501876158094304E-005  0.000000000000000 -1.387778780781446E-016
   80000.0000000000  0.000000000000000  1.394299277147750E-004  0.000000000000000 -2.775557561562891E-016
   96000.0000000000  0.000000000000000  6.501876158094304E-005  0.000000000000000 -1.387778780781446E-016
   112000.000000000  0.000000000000000  1.394299277147750E-004  0.000000000000000 -2.775557561562891E-016
   128000.000000000  0.000000000000000  6.501876158096414E-005  0.000000000000000 -1.387778780781446E-016
   144000.000000000  0.000000000000000  1.394299277149439E-004  0.000000000000000 -2.775557561562891E-016
   160000.000000000  0.000000000000000  6.528920226461008E-005 -8.131516293641283E-019  3.469446951953614E-017
   176000.000000000  0.000000000000000  1.387662418702148E-004  0.000000000000000  7.126244039312724E-014
   192000.000000000  0.000000000000000  6.250179727705149E-005  2.081668171172169E-016 -3.885780586188048E-015
   208000.000000000  0.000000000000000  1.318556982582533E-004  0.000000000000000 -8.881784197001252E-015
   224000.000000000  0.000000000000000  6.033752409930858E-005  2.498001805406602E-015 -6.838973831690964E-013
   240000.000000000  0.000000000000000  1.207686008634559E-004  0.000000000000000 -2.344791028008331E-012
   256000.000000000  0.000000000000000  4.961749688899605E-005 -1.021405182655144E-013 -7.815970093361102E-013
   272000.000000000  0.000000000000000  9.894344859168877E-005  0.000000000000000  3.055333763768431E-012
   288000.000000000  0.000000000000000  5.497326702115077E-005 -3.840677775812651E-014  1.582622921603161E-012
   304000.000000000  0.000000000000000  1.318556444678754E-004  0.000000000000000 -4.729550084903167E-013
   320000.000000000  0.000000000000000  6.033749536102722E-005 -3.049643870767227E-014 -1.524891324322653E-012
   336000.000000000  0.000000000000000  1.207684247506799E-004  0.000000000000000 -3.268496584496461E-012
   352000.000000000  0.000000000000000  5.233880780506243E-005 -1.554312234475219E-014 -3.730349362740526E-012
   368000.000000000  0.000000000000000  1.207494218309511E-004  0.000000000000000 -2.919886554764162E-013
   384000.000000000  0.000000000000000  6.033425032783676E-005  8.812395257962180E-015 -3.996802888650564E-013
   400000.000000000  0.000000000000000  1.318557029852482E-004  0.000000000000000 -5.795364188543317E-013
   416000.000000000  0.000000000000000  6.033425032642622E-005  7.636252741249905E-014  9.398037903451950E-013
   432000.000000000  0.000000000000000  1.207494218196297E-004  0.000000000000000 -1.136868377216160E-012
   448000.000000000  0.000000000000000  5.234329459720650E-005  6.661338147750939E-015  2.486899575160351E-013
   464000.000000000  0.000000000000000  1.207686008647357E-004  0.000000000000000 -7.316369732279782E-013
   480000.000000000  0.000000000000000  6.032003432630265E-005 -2.914335439641036E-015  4.174438572590589E-013
   496000.000000000  0.000000000000000  1.317157825714784E-004  0.000000000000000  2.559064071760986E-012
   512000.000000000  0.000000000000000  5.469878389145508E-005  1.842970220877760E-013  3.552713678800501E-013
   528000.000000000  0.000000000000000  9.894347464915761E-005  0.000000000000000 -1.989519660128281E-012
   544000.000000000  0.000000000000000  4.961754908403853E-005 -1.776356839400250E-014  3.375077994860476E-013
   560000.000000000  0.000000000000000  1.207689922630821E-004  0.000000000000000 -4.751754545395670E-013
   576000.000000000  0.000000000000000  6.013015222451910E-005  6.938893903907228E-017 -1.665334536937735E-014
   592000.000000000  0.000000000000000  1.331454896452084E-004  0.000000000000000 -2.442490654175344E-014
   608000.000000000  0.000000000000000  6.441284989310809E-005 -5.553825628556996E-016 -1.894318035766673E-014
   624000.000000000  0.000000000000000  1.394299455735056E-004  0.000000000000000  0.000000000000000
   640000.000000000  0.000000000000000  6.501876381333259E-005  2.710505431213761E-019 -6.938893903907228E-017
   656000.000000000  0.000000000000000  1.394299277147750E-004  0.000000000000000 -2.775557561562891E-016
   672000.000000000  0.000000000000000  6.501876158094304E-005  0.000000000000000 -1.387778780781446E-016
   688000.000000000  0.000000000000000  1.394299277147750E-004  0.000000000000000 -2.775557561562891E-016
   704000.000000000  0.000000000000000  6.501876158094304E-005  0.000000000000000 -1.387778780781446E-016
   720000.000000000  0.000000000000000  1.394299277147750E-004  0.000000000000000 -2.775557561562891E-016
   736000.000000000  0.000000000000000  6.501876158094304E-005  0.000000000000000 -1.387778780781446E-016
   752000.000000000  0.000000000000000  1.394299277147750E-004  0.000000000000000 -2.775557561562891E-016
   768000.000000000  0.000000000000000  6.501876158094304E-005  0.000000000000000 -1.387778780781446E-016
   784000.000000000  0.000000000000000  1.394299277147750E-004  0.000000000000000 -2.775557561562891E-016
   800000.000000000  0.000000000000000  6.501876158094304E-005  0.000000000000000 -1.387778780781446E-016
   816000.000000000  0.000000000000000  1.394299277147750E-004  0.000000000000000 -2.775557561562891E-016
   832000.000000000  0.000000000000000  6.501876158094304E-005  0.000000000000000 -1.387778780781446E-016
   848000.000000000  0.000000000000000  1.394299277147750E-004  0.000000000000000 -2.775557561562891E-016
   864000.000000000  0.000000000000000  6.501876158094304E-005  0.000000000000000 -1.387778780781446E-016
   880000.000000000  0.000000000000000  1.394299277147750E-004  0.000000000000000 -2.775557561562891E-016
   896000.000000000  0.000000000000000  6.501876158094304E-005  0.000000000000000 -1.387778780781446E-016
   912000.000000000  0.000000000000000  1.394299277147750E-004  0.000000000000000 -2.775557561562891E-016
   928000.000000000  0.000000000000000  6.501876158094304E-005  0.000000000000000 -1.387778780781446E-016
   944000.000000000  0.000000000000000  1.394299277147750E-004  0.000000000000000 -2.775557561562891E-016
   960000.000000000  0.000000000000000  6.501876158094304E-005  0.000000000000000 -1.387778780781446E-016
   976000.000000000  0.000000000000000  1.394299277147750E-004  0.000000000000000 -2.775557561562891E-016
   992000.000000000  0.000000000000000  6.501876158094304E-005  0.000000000000000 -1.387778780781446E-016
   1008000.00000000  0.000000000000000  1.394299277147750E-004  0.000000000000000 -2.775557561562891E-016
   1024000.00000000  0.000000000000000  6.501876158094304E-005  0.000000000000000 -1.387778780781446E-016
   1040000.00000000  0.000000000000000  1.394299277147750E-004  0.000000000000000 -2.775557561562891E-016
   1056000.00000000  0.000000000000000  6.501876158094304E-005  0.000000000000000 -1.387778780781446E-016
   1072000.00000000  0.000000000000000  1.394299277147750E-004  0.000000000000000 -2.775557561562891E-016
   1088000.00000000  0.000000000000000  6.501876158094304E-005  0.000000000000000 -1.387778780781446E-016
   1104000.00000000  0.000000000000000  1.394299277147750E-004  0.000000000000000 -2.775557561562891E-016
   1120000.00000000  0.000000000000000  6.501876158094304E-005  0.000000000000000 -1.387778780781446E-016
   1136000.00000000  0.000000000000000  1.394299277147750E-004  0.000000000000000 -2.775557561562891E-016
   1152000.00000000  0.000000000000000  6.501876158094304E-005  0.000000000000000 -1.387778780781446E-016
   1168000.00000000  0.000000000000000  1.394299277147750E-004  0.000000000000000 -2.775557561562891E-016
   1184000.00000000  0.000000000000000  6.501876158094304E-005  0.000000000000000 -1.387778780781446E-016
   1200000.00000000  0.000000000000000  1.394299277147750E-004  0.000000000000000 -2.775557561562891E-016
   1216000.00000000  0.000000000000000  6.501876158094304E-005  0.000000000000000 -1.387778780781446E-016
   1232000.00000000  0.000000000000000  1.394299277147750E-004  0.000000000000000 -2.775557561562891E-016
   1248000.00000000  0.000000000000000  6.501876158094304E-005  0.000000000000000 -1.387778780781446E-016
   1264000.00000000  0.000000000000000  1.394299277147750E-004  0.000000000000000 -2.775557561562891E-016
   1280000.00000000  0.000000000000000  6.501876158094304E-005  0.000000000000000 -1.387778780781446E-016
   1296000.00000000  0.000000000000000  1.394299277147750E-004  0.000000000000000 -2.775557561562891E-016
   1312000.00000000  0.000000000000000  6.501876158094304E-005  0.000000000000000 -1.387778780781446E-016
   1328000.00000000  0.000000000000000  1.394299277147750E-004  0.000000000000000 -2.775557561562891E-016
   1344000.00000000  0.000000000000000  6.501876158094304E-005  0.000000000000000 -1.387778780781446E-016
   1360000.00000000  0.000000000000000  1.394299277147750E-004  0.000000000000000 -2.775557561562891E-016
   1376000.00000000  0.000000000000000  6.501876158094304E-005  0.000000000000000 -1.387778780781446E-016
   1392000.00000000  0.000000000000000  1.394299277147750E-004  0.000000000000000 -2.775557561562891E-016
   1408000.00000000  0.000000000000000  6.501876158094304E-005  0.000000000000000 -1.387778780781446E-016
   1424000.00000000  0.000000000000000  1.394299277147750E-004  0.000000000000000 -2.775557561562891E-016
   1440000.00000000  0.000000000000000  6.501876158094304E-005  0.000000000000000 -1.387778780781446E-016
   1456000.00000000  0.000000000000000  1.394299277147750E-004  0.000000000000000 -2.775557561562891E-016
   1472000.00000000  0.000000000000000  6.501876158094304E-005  0.000000000000000 -1.387778780781446E-016
   1488000.00000000  0.000000000000000  1.394299277147750E-004  0.000000000000000 -2.775557561562891E-016
   1504000.00000000  0.000000000000000  6.501876158094304E-005  0.000000000000000 -1.387778780781446E-016
   1520000.00000000  0.000000000000000  1.394299277147750E-004  0.000000000000000 -2.775557561562891E-016
   1536000.00000000  0.000000000000000  6.501876158094304E-005  0.000000000000000 -1.387778780781446E-016
   1552000.00000000  0.000000000000000  1.394299277147750E-004  0.000000000000000 -2.775557561562891E-016
   1568000.00000000  0.000000000000000  6.501876158094304E-005  0.000000000000000 -1.387778780781446E-016
   1584000.00000000  0.000000000000000  1.394299277147750E-004  0.000000000000000 -2.775557561562891E-016
   1600000.00000000  0.000000000000000  1.300375231618861E-004 -5.421010862427522E-019 -1.387778780781446E-016
 zone f="point",i=  101
   0.000000000000000  0.000000000000000  1.174206258223733E-004  5.695689370228333E-007 -1.060964975013040E-004
   16000.0000000000  0.000000000000000  1.254216498788739E-004  8.233223466105065E-007 -9.880248416728465E-005
   32000.0000000000  0.000000000000000  5.871081722899318E-005  3.613652049178127E-007 -2.470039566365017E-005
   48000.0000000000  0.000000000000000  1.254223032934128E-004  0.000000000000000  6.245004513516506E-016
   64000.0000000000  0.000000000000000  5.871089837065644E-005  1.490777987167569E-018  8.673617379884035E-017
   80000.0000000000  0.000000000000000  1.254223032932847E-004  0.000000000000000 -2.775557561562891E-016
   96000.0000000000  0.000000000000000  5.871089837064044E-005  0.000000000000000 -1.387778780781446E-016
   112000.000000000  0.000000000000000  1.254223032932847E-004  0.000000000000000 -2.775557561562891E-016
   128000.000000000  0.000000000000000  5.871089837069114E-005  0.000000000000000 -1.387778780781446E-016
   144000.000000000  0.000000000000000  1.254223032936903E-004  0.000000000000000 -2.775557561562891E-016
   160000.000000000  0.000000000000000  5.900889261132106E-005 -8.131516293641283E-019  3.469446951953614E-017
   176000.000000000  0.000000000000000  1.252543004182604E-004  0.000000000000000  7.126244039312724E-014
   192000.000000000  0.000000000000000  5.676160643243436E-005  2.081668171172169E-016 -3.885780586188048E-015
   208000.000000000  0.000000000000000  1.207868130594109E-004  0.000000000000000 -8.881784197001252E-015
   224000.000000000  0.000000000000000  5.472946768142050E-005  2.498001805406602E-015 -6.838973831690964E-013
   240000.000000000  0.000000000000000  1.082639124438067E-004  0.000000000000000 -2.344791028008331E-012
   256000.000000000  0.000000000000000  4.451959556793447E-005 -1.021405182655144E-013 -7.815970093361102E-013
   272000.000000000  0.000000000000000  8.665695489820873E-005  0.000000000000000  3.055333763768431E-012
   288000.000000000  0.000000000000000  4.963094546502017E-005 -3.254341240932490E-014  1.485478406948459E-012
   304000.000000000  0.000000000000000  1.207866144648293E-004  0.000000000000000 -5.706546346573305E-013
   320000.000000000  0.000000000000000  5.472929120832267E-005 -3.625572064791527E-014 -1.676991878696299E-012
   336000.000000000  0.000000000000000  1.082626992944123E-004  0.000000000000000 -3.481659405224491E-012
   352000.000000000  0.000000000000000  4.719136327883771E-005 -6.661338147750939E-015 -3.872457909892546E-012
   368000.000000000  0.000000000000000  1.081897979953681E-004  0.000000000000000 -4.396483177515620E-013
   384000.000000000  0.000000000000000  5.471665943320039E-005  1.020017403874363E-014 -4.751754545395670E-013
   400000.000000000  0.000000000000000  1.207868135077887E-004  0.000000000000000 -6.794564910705958E-013
   416000.000000000  0.000000000000000  5.471665947661963E-005  7.153999614928352E-014  8.604228440844963E-013
   432000.000000000  0.000000000000000  1.081897983426036E-004  0.000000000000000 -1.136868377216160E-012
   448000.000000000  0.000000000000000  4.721129243786058E-005  8.881784197001252E-015  2.309263891220326E-013
   464000.000000000  0.000000000000000  1.082639124466961E-004  0.000000000000000 -7.682743330406083E-013
   480000.000000000  0.000000000000000  5.469143512800895E-005 -2.949029909160572E-015  4.291011990176230E-013
   496000.000000000  0.000000000000000  1.204825605870971E-004  0.000000000000000  2.559064071760986E-012
   512000.000000000  0.000000000000000  4.911534072808252E-005  1.842970220877760E-013  3.552713678800501E-013
   528000.000000000  0.000000000000000  8.665697439525852E-005  0.000000000000000 -1.989519660128281E-012
   544000.000000000  0.000000000000000  4.451980696605583E-005 -1.776356839400250E-014  3.375077994860476E-013
   560000.000000000  0.000000000000000  1.082655822056335E-004  0.000000000000000 -4.751754545395670E-013
   576000.000000000  0.000000000000000  5.449033283521193E-005  6.938893903907228E-017 -1.665334536937735E-014
   592000.000000000  0.000000000000000  1.215531755289293E-004  0.000000000000000 -2.442490654175344E-014
   608000.000000000  0.000000000000000  5.839601033033717E-005 -5.553825628556996E-016 -1.894318035766673E-014
   624000.000000000  0.000000000000000  1.254223298425551E-004  0.000000000000000  0.000000000000000
   640000.000000000  0.000000000000000  5.871090168940339E-005  2.710505431213761E-019 -6.938893903907228E-017
   656000.000000000  0.000000000000000  1.254223032932848E-004  0.000000000000000 -2.775557561562891E-016
   672000.000000000  0.000000000000000  5.871089837064047E-005  0.000000000000000 -1.387778780781446E-016
   688000.000000000  0.000000000000000  1.254223032932847E-004  0.000000000000000 -2.775557561562891E-016
   704000.000000000  0.000000000000000  5.871089837064044E-005  0.000000000000000 -1.387778780781446E-016
   720000.000000000  0.000000000000000  1.254223032932847E-004  0.000000000000000 -2.775557561562891E-016
   736000.000000000  0.000000000000000  5.871089837064044E-005  0.000000000000000 -1.387778780781446E-016
   752000.000000000  0.000000000000000  1.254223032932847E-004  0.000000000000000 -2.775557561562891E-016
   768000.000000000  0.000000000000000  5.871089837064044E-005  0.000000000000000 -1.387778780781446E-016
   784000.000000000  0.000000000000000  1.254223032932847E-004  0.000000000000000 -2.775557561562891E-016
   800000.000000000  0.000000000000000  5.871089837064044E-005  0.000000000000000 -1.387778780781446E-016
   816000.000000000  0.000000000000000  1.254223032932847E-004  0.000000000000000 -2.775557561562891E-016
   832000.000000000  0.000000000000000  5.871089837064044E-005  0.000000000000000 -1.387778780781446E-016
   848000.000000000  0.000000000000000  1.254223032932847E-004  0.000000000000000 -2.775557561562891E-016
   864000.000000000  0.000000000000000  5.871089837064044E-005  0.000000000000000 -1.387778780781446E-016
   880000.000000000  0.000000000000000  1.254223032932847E-004  0.000000000000000 -2.775557561562891E-016
   896000.000000000  0.000000000000000  5.871089837064044E-005  0.000000000000000 -1.387778780781446E-016
   912000.000000000  0.000000000000000  1.254223032932847E-004  0.000000000000000 -2.775557561562891E-016
   928000.000000000  0.000000000000000  5.871089837064044E-005  0.000000000000000 -1.387778780781446E-016
   944000.000000000  0.000000000000000  1.254223032932847E-004  0.000000000000000 -2.775557561562891E-016
   960000.000000000  0.000000000000000  5.871089837064044E-005  0.000000000000000 -1.387778780781446E-016
   976000.000000000  0.000000000000000  1.254223032932847E-004  0.000000000000000 -2.775557561562891E-016
   992000.000000000  0.000000000000000  5.871089837064044E-005  0.000000000000000 -1.387778780781446E-016
   1008000.00000000  0.000000000000000  1.254223032932847E-004  0.000000000000000 -2.775557561562891E-016
   1024000.00000000  0.000000000000000  5.871089837064044E-005  0.000000000000000 -1.387778780781446E-016
   1040000.00000000  0.000000000000000  1.254223032932847E-004  0.000000000000000 -2.775557561562891E-016
   1056000.00000000  0.000000000000000  5.871089837064044E-005  0.000000000000000 -1.387778780781446E-016
   1072000.00000000  0.000000000000000  1.254223032932847E-004  0.000000000000000 -2.775557561562891E-016
   1088000.00000000  0.000000000000000  5.871089837064044E-005  0.000000000000000 -1.387778780781446E-016
   1104000.00000000  0.000000000000000  1.254223032932847E-004  0.000000000000000 -2.775557561562891E-016
   1120000.00000000  0.000000000000000  5.871089837064044E-005  0.000000000000000 -1.387778780781446E-016
   1136000.00000000  0.000000000000000  1.254223032932847E-004  0.000000000000000 -2.775557561562891E-016
   1152000.00000000  0.000000000000000  5.871089837064044E-005  0.000000000000000 -1.387778780781446E-016
   1168000.00000000  0.000000000000000  1.254223032932847E-004  0.000000000000000 -2.775557561562891E-016
   1184000.00000000  0.000000000000000  5.871089837064044E-005  0.000000000000000 -1.387778780781446E-016
   1200000.00000000  0.000000000000000  1.254223032932847E-004  0.000000000000000 -2.775557561562891E-016