 title = "surface data"
 variables = "x (m)","jz (mw/m*m)",                       "qx(m/yr)", "qz(m/yr)"
 zone f="point",i=  101
   0.000000000000000  0.000000000000000  1.502929161311223E-004  4.005693057937062E-007 -2.372978059994590E-005
   16000.0000000000  0.000000000000000  1.589848827654462E-004  2.744407822036828E-007  1.807781702112266E-010
   32000.0000000000  0.000000000000000  7.514658534308443E-005  2.824665143712907E-013  4.519492419197135E-011
   48000.0000000000  0.000000000000000  1.589849158266311E-004  0.000000000000000 -2.775557561562891E-016
   64000.0000000000  0.000000000000000  7.514658947582655E-005  0.000000000000000 -1.387778780781446E-016
   80000.0000000000  0.000000000000000  1.589849158266311E-004  0.000000000000000 -2.775557561562891E-016
   96000.0000000000  0.000000000000000  7.514658947582655E-005  0.000000000000000 -1.387778780781446E-016
   112000.000000000  0.000000000000000  1.589849158266311E-004  0.000000000000000 -2.775557561562891E-016
   128000.000000000  0.000000000000000  7.514658947583075E-005  0.000000000000000 -1.387778780781446E-016
   144000.000000000  0.000000000000000  1.589849158266647E-004  0.000000000000000 -2.775557561562891E-016
   160000.000000000  0.000000000000000  7.533794371804767E-005 -1.761828530288945E-018  1.387778780781446E-016
   176000.000000000  0.000000000000000  1.573107558721914E-004  0.000000000000000  1.602884491802570E-013
   192000.000000000  0.000000000000000  7.117210413746445E-005  6.245004513516506E-016 -9.436895709313831E-015
   208000.000000000  0.000000000000000  1.461628251730216E-004  0.000000000000000 -3.108624468950438E-014
   224000.000000000  0.000000000000000  6.880671684153019E-005 -1.279185091185298E-012 -2.285949207703197E-012
   240000.000000000  0.000000000000000  1.385326103389946E-004  0.000000000000000  6.366462912410498E-011
   256000.000000000  0.000000000000000  5.860077919738448E-005  9.379164112033322E-012 -3.183231456205249E-010
   272000.000000000  0.000000000000000  1.207062558797310E-004  0.000000000000000 -4.274625098332763E-010
   288000.000000000  0.000000000000000  6.408745791102706E-005  3.239023632639615E-011 -6.527339779793806E-010
   304000.000000000  0.000000000000000  1.461628015004734E-004  0.000000000000000 -9.098277686803158E-012
   320000.000000000  0.000000000000000  6.693399147751490E-005  1.705302565824240E-012 -8.640199666842818E-011
   336000.000000000  0.000000000000000  1.320581966217180E-004  0.000000000000000 -1.273292582482100E-010
   352000.000000000  0.000000000000000  6.001976708263849E-005  6.281197784119286E-011 -1.034550223266706E-009
   368000.000000000  0.000000000000000  1.385326012146300E-004  0.000000000000000 -9.416101232062601E-010
   384000.000000000  0.000000000000000  6.880671574997716E-005  2.116362640691705E-014 -1.770805724277125E-012
   400000.000000000  0.000000000000000  1.461628274012481E-004  0.000000000000000 -1.920685832601521E-012
   416000.000000000  0.000000000000000  6.880671575424064E-005 -3.581440699562677E-012 -9.145018076139877E-011
   432000.000000000  0.000000000000000  1.385326012632249E-004  0.000000000000000 -1.000444171950221E-010
   448000.000000000  0.000000000000000  6.001976717569470E-005  1.136868377216160E-012 -5.456968210637569E-011
   464000.000000000  0.000000000000000  1.320581966345280E-004  0.000000000000000 -1.546140993013978E-010
   480000.000000000  0.000000000000000  6.693397089922040E-005  4.347563975493074E-013 -5.699163363459547E-011
   496000.000000000  0.000000000000000  1.461626368560192E-004  0.000000000000000 -9.416101232062601E-010
   512000.000000000  0.000000000000000  6.408682524334187E-005 -5.456968210637569E-011 -7.025846571195871E-010
   528000.000000000  0.000000000000000  1.207062559752262E-004  0.000000000000000 -3.819877747446299E-010
   544000.000000000  0.000000000000000  5.860078306661173E-005 -1.989519660128281E-012 -2.046363078989089E-010
   560000.000000000  0.000000000000000  1.385326103726001E-004  0.000000000000000 -4.549027821099116E-011
   576000.000000000  0.000000000000000  6.866890630491455E-005 -3.816391647148976E-016 -1.387778780781446E-014
   592000.000000000  0.000000000000000  1.483509361139711E-004  0.000000000000000 -4.440892098500626E-015
   608000.000000000  0.000000000000000  7.392345588345989E-005 -1.387778780781446E-016 -1.040834085586084E-015
   624000.000000000  0.000000000000000  1.589849237355895E-004  0.000000000000000  1.387778780781446E-016
   640000.000000000  0.000000000000000  7.514659046445759E-005  5.421010862427522E-019 -3.469446951953614E-017
   656000.000000000  0.000000000000000  1.589849158266311E-004  0.000000000000000 -2.775557561562891E-016
   672000.000000000  0.000000000000000  7.514658947582655E-005  0.000000000000000 -1.387778780781446E-016
   688000.000000000  0.000000000000000  1.589849158266311E-004  0.000000000000000 -2.775557561562891E-016
   704000.000000000  0.000000000000000  7.514658947582655E-005  0.000000000000000 -1.387778780781446E-016
   720000.000000000  0.000000000000000  1.589849158266311E-004  0.000000000000000 -2.775557561562891E-016
   736000.000000000  0.000000000000000  7.514658947582655E-005  0.000000000000000 -1.387778780781446E-016
   752000.000000000  0.000000000000000  1.589849158266311E-004  0.000000000000000 -2.775557561562891E-016
   768000.000000000  0.000000000000000  7.514658947582655E-005  0.000000000000000 -1.387778780781446E-016
   784000.000000000  0.000000000000000  1.589849158266311E-004  0.000000000000000 -2.775557561562891E-016
   800000.000000000  0.000000000000000  7.514658947582655E-005  0.000000000000000 -1.387778780781446E-016
   816000.000000000  0.000000000000000  1.589849158266311E-004  0.000000000000000 -2.775557561562891E-016
   832000.000000000  0.000000000000000  7.514658947582655E-005  0.000000000000000 -1.387778780781446E-016
   848000.000000000  0.000000000000000  1.589849158266311E-004  0.000000000000000 -2.775557561562891E-016
   864000.000000000  0.000000000000000  7.514658947582655E-005  0.000000000000000 -1.387778780781446E-016
   880000.000000000  0.000000000000000  1.589849158266311E-004  0.000000000000000 -2.775557561562891E-016
   896000.000000000  0.000000000000000  7.514658947582655E-005  0.000000000000000 -1.387778780781446E-016
   912000.000000000  0.000000000000000  1.589849158266311E-004  0.000000000000000 -2.775557561562891E-016
   928000.000000000  0.000000000000000  7.514658947582655E-005  0.000000000000000 -1.387778780781446E-016
   944000.000000000  0.000000000000000  1.589849158266311E-004  0.000000000000000 -2.775557561562891E-016
   960000.000000000  0.000000000000000  7.514658947582655E-005  0.000000000000000 -1.387778780781446E-016
   976000.000000000  0.000000000000000  1.589849158266311E-004  0.000000000000000 -2.775557561562891E-016
   992000.000000000  0.000000000000000  7.514658947582655E-005  0.000000000000000 -1.387778780781446E-016
   1008000.00000000  0.000000000000000  1.589849158266311E-004  0.000000000000000 -2.775557561562891E-016
   1024000.00000000  0.000000000000000  7.514658947582655E-005  0.000000000000000 -1.387778780781446E-016
   1040000.00000000  0.000000000000000  1.589849158266311E-004  0.000000000000000 -2.775557561562891E-016
   1056000.00000000  0.000000000000000  7.514658947582655E-005  0.000000000000000 -1.387778780781446E-016
   1072000.00000000  0.000000000000000  1.589849158266311E-004  0.000000000000000 -2.775557561562891E-016
   1088000.00000000  0.000000000000000  7.514658947582655E-005  0.000000000000000 -1.387778780781446E-016
   1104000.00000000  0.000000000000000  1.589849158266311E-004  0.000000000000000 -2.775557561562891E-016
   1120000.00000000  0.000000000000000  7.514658947582655E-005  0.000000000000000 -1.387778780781446E-016
   1136000.00000000  0.000000000000000  1.589849158266311E-004  0.000000000000000 -2.775557561562891E-016
   1152000.00000000  0.000000000000000  7.514658947582655E-005  0.000000000000000 -1.387778780781446E-016
   1168000.00000000  0.000000000000000  1.589849158266311E-004  0.000000000000000 -2.775557561562891E-016
   1184000.00000000  0.000000000000000  7.514658947582655E-005  0.000000000000000 -1.387778780781446E-016
   1200000.00000000  0.000000000000000  1.589849158266311E-004  0.000000000000000 -2.775557561562891E-016
   1216000.00000000  0.000000000000000  7.514658947582655E-005  0.000000000000000 -1.387778780781446E-016
   1232000.00000000  0.000000000000000  1.589849158266311E-004  0.000000000000000 -2.775557561562891E-016
   1248000.00000000  0.000000000000000  7.514658947582655E-005  0.000000000000000 -1.387778780781446E-016
   1264000.00000000  0.000000000000000  1.589849158266311E-004  0.000000000000000 -2.775557561562891E-016
   1280000.00000000  0.000000000000000  7.514658947582655E-005  0.000000000000000 -1.387778780781446E-016
   1296000.00000000  0.000000000000000  1.589849158266311E-004  0.000000000000000 -2.775557561562891E-016
   1312000.00000000  0.000000000000000  7.514658947582655E-005  0.000000000000000 -1.387778780781446E-016
   1328000.00000000  0.000000000000000  1.589849158266311E-004  0.000000000000000 -2.775557561562891E-016
   1344000.00000000  0.000000000000000  7.514658947582655E-005  0.000000000000000 -1.387778780781446E-016
   1360000.00000000  0.000000000000000  1.589849158266311E-004  0.000000000000000 -2.775557561562891E-016
   1376000.00000000  0.000000000000000  7.514658947582655E-005  0.000000000000000 -1.387778780781446E-016
   1392000.00000000  0.000000000000000  1.589849158266311E-004  0.000000000000000 -2.775557561562891E-016
   1408000.00000000  0.000000000000000  7.514658947582655E-005  0.000000000000000 -1.387778780781446E-016
   1424000.00000000  0.000000000000000  1.589849158266311E-004  0.000000000000000 -2.775557561562891E-016
   1440000.00000000  0.000000000000000  7.514658947582655E-005  0.000000000000000 -1.387778780781446E-016
   1456000.00000000  0.000000000000000  1.589849158266311E-004  0.000000000000000 -2.775557561562891E-016
   1472000.00000000  0.000000000000000  7.514658947582655E-005  0.000000000000000 -1.387778780781446E-016
   1488000.00000000  0.000000000000000  1.589849158266311E-004  0.000000000000000 -2.775557561562891E-016
   1504000.00000000  0.000000000000000  7.514658947582655E-005  0.000000000000000 -1.387778780781446E-016
   1520000.00000000  0.000000000000000  1.589849158266311E-004  0.000000000000000 -2.775557561562891E-016
   1536000.00000000  0.000000000000000  7.514658947582655E-005  0.000000000000000 -1.387778780781446E-016
   1552000.00000000  0.000000000000000  1.589849158266311E-004  0.000000000000000 -2.775557561562891E-016
   1568000.00000000  0.000000000000000  7.514658947582655E-005  0.000000000000000 -1.387778780781446E-016
   1584000.00000000  0.000000000000000  1.589849158266311E-004  0.000000000000000 -2.775557561562891E-016
   1600000.00000000  0.000000000000000  1.502931789516530E-004 -5.421010862427522E-019 -1.387778780781446E-016
 zone f="point",i=  101
   0.000000000000000  0.000000000000000  1.300369082735616E-004  8.373616671130931E-007 -4.166350135451774E-005
   16000.0000000000  0.000000000000000  1.394298313800355E-004  5.488815644068236E-007  7.325175882533230E-010
   32000.0000000000  0.000000000000000  6.501874953869140E-005  1.144559029801415E-012  1.831327971213437E-010
   48000.0000000000  0.000000000000000  1.394299277147750E-004  0.000000000000000 -2.775557561562891E-016
   64000.0000000000  0.000000000000000  6.501876158094304E-005  0.000000000000000 -1.387778780781446E-016
   80000.0000000000  0.000000000000000  1.394299277147750E-004  0.000000000000000 -2.775557561562891E-016
   96000.0000000000  0.000000000000000  6.501876158094304E-005  0.000000000000000 -1.387778780781446E-016
   112000.000000000  0.000000000000000  1.394299277147750E-004  0.000000000000000 -2.775557561562891E-016
   128000.000000000  0.000000000000000  6.501876158096414E-005  0.000000000000000 -1.387778780781446E-016
   144000.000000000  0.000000000000000  1.394299277149439E-004  0.000000000000000 -2.775557561562891E-016
   160000.000000000  0.000000000000000  6.528920157380196E-005 -1.761828530288945E-018  1.387778780781446E-016
   176000.000000000  0.000000000000000  1.387662364545346E-004  0.000000000000000  1.602884491802570E-013
   192000.000000000  0.000000000000000  6.250178410422757E-005  9.714451465470120E-016 -1.498801083243961E-014
   208000.000000000  0.000000000000000  1.318556972643726E-004  0.000000000000000 -5.329070518200751E-014
   224000.000000000  0.000000000000000  6.033750195629911E-005 -1.279532035880493E-012 -2.291500322826323E-012
   240000.000000000  0.000000000000000  1.207684247208197E-004  0.000000000000000  6.366462912410498E-011
   256000.000000000  0.000000000000000  4.961300443121773E-005  9.663381206337363E-012 -3.274180926382542E-010
   272000.000000000  0.000000000000000  9.894344857134689E-005  0.000000000000000 -4.547473508864641E-010
   288000.000000000  0.000000000000000  5.497340322664854E-005  3.324261005355211E-011 -6.709283129069377E-010
   304000.000000000  0.000000000000000  1.318556395508132E-004  0.000000000000000 -9.098277686803158E-012
   320000.000000000  0.000000000000000  5.820817165522150E-005  1.705302565824240E-012 -8.640199666842818E-011
   336000.000000000  0.000000000000000  1.126529994919928E-004  0.000000000000000 -1.273292582482100E-010
   352000.000000000  0.000000000000000  5.132669835689641E-005  6.281197784119286E-011 -1.034550223266706E-009
   368000.000000000  0.000000000000000  1.207681572740541E-004  0.000000000000000 -9.416112334292848E-010
   384000.000000000  0.000000000000000  6.033746093917723E-005  2.140648769355380E-014 -1.782463066035689E-012
   400000.000000000  0.000000000000000  1.318557029556209E-004  0.000000000000000 -1.938449400995523E-012
   416000.000000000  0.000000000000000  6.033746094589805E-005 -3.439609708166813E-012 -9.145462165349727E-011
   432000.000000000  0.000000000000000  1.207681573487999E-004  0.000000000000000 -1.091393642127514E-010
   448000.000000000  0.000000000000000  5.132670431926598E-005  5.684341886080801E-013 -5.911715561524034E-011
   464000.000000000  0.000000000000000  1.126529995427964E-004  0.000000000000000 -1.546140993013978E-010
   480000.000000000  0.000000000000000  5.820788046573389E-005  4.349645643664246E-013 -5.699496430366935E-011
   496000.000000000  0.000000000000000  1.318533099840674E-004  0.000000000000000 -9.689016255975957E-010
   512000.000000000  0.000000000000000  5.496679626032074E-005 -5.599076757789589E-011 -7.253220246639103E-010
   528000.000000000  0.000000000000000  9.894344881210749E-005  0.000000000000000 -3.819877747446299E-010
   544000.000000000  0.000000000000000  4.961316058538749E-005 -1.989519660128281E-012 -2.046363078989089E-010
   560000.000000000  0.000000000000000  1.207684270825711E-004  0.000000000000000 -4.549027821099116E-011
   576000.000000000  0.000000000000000  6.012905977711982E-005 -3.816391647148976E-016 -1.387778780781446E-014
   592000.000000000  0.000000000000000  1.331413704827318E-004  0.000000000000000 -4.440892098500626E-015
   608000.000000000  0.000000000000000  6.441134530629136E-005 -4.155204826050696E-016  3.504141421473150E-015
   624000.000000000  0.000000000000000  1.394299455147060E-004  0.000000000000000  1.387778780781446E-016
   640000.000000000  0.000000000000000  6.501876380598240E-005  5.421010862427522E-019 -3.469446951953614E-017
   656000.000000000  0.000000000000000  1.394299277147750E-004  0.000000000000000 -2.775557561562891E-016
   672000.000000000  0.000000000000000  6.501876158094304E-005  0.000000000000000 -1.387778780781446E-016
   688000.000000000  0.000000000000000  1.394299277147750E-004  0.000000000000000 -2.775557561562891E-016
   704000.000000000  0.000000000000000  6.501876158094304E-005  0.000000000000000 -1.387778780781446E-016
   720000.000000000  0.000000000000000  1.394299277147750E-004  0.000000000000000 -2.775557561562891E-016
   736000.000000000  0.000000000000000  6.501876158094304E-005  0.000000000000000 -1.387778780781446E-016
   752000.000000000  0.000000000000000  1.394299277147750E-004  0.000000000000000 -2.775557561562891E-016
   768000.000000000  0.000000000000000  6.501876158094304E-005  0.000000000000000 -1.387778780781446E-016
   784000.000000000  0.000000000000000  1.394299277147750E-004  0.000000000000000 -2.775557561562891E-016
   800000.000000000  0.000000000000000  6.501876158094304E-005  0.000000000000000 -1.387778780781446E-016
   816000.000000000  0.000000000000000  1.394299277147750E-004  0.000000000000000 -2.775557561562891E-016
   832000.000000000  0.000000000000000  6.501876158094304E-005  0.000000000000000 -1.387778780781446E-016
   848000.000000000  0.000000000000000  1.394299277147750E-004  0.000000000000000 -2.775557561562891E-016
   864000.000000000  0.000000000000000  6.501876158094304E-005  0.000000000000000 -1.387778780781446E-016
   880000.000000000  0.000000000000000  1.394299277147750E-004  0.000000000000000 -2.775557561562891E-016
   896000.000000000  0.000000000000000  6.501876158094304E-005  0.000000000000000 -1.387778780781446E-016
   912000.000000000  0.000000000000000  1.394299277147750E-004  0.000000000000000 -2.775557561562891E-016
   928000.000000000  0.000000000000000  6.501876158094304E-005  0.000000000000000 -1.387778780781446E-016
   944000.000000000  0.000000000000000  1.394299277147750E-004  0.000000000000000 -2.775557561562891E-016
   960000.000000000  0.000000000000000  6.501876158094304E-005  0.000000000000000 -1.387778780781446E-016
   976000.000000000  0.000000000000000  1.394299277147750E-004  0.000000000000000 -2.775557561562891E-016
   992000.000000000  0.000000000000000  6.501876158094304E-005  0.000000000000000 -1.387778780781446E-016
   1008000.00000000  0.000000000000000  1.394299277147750E-004  0.000000000000000 -2.775557561562891E-016
   1024000.00000000  0.000000000000000  6.501876158094304E-005  0.000000000000000 -1.387778780781446E-016
   1040000.00000000  0.000000000000000  1.394299277147750E-004  0.000000000000000 -2.775557561562891E-016
   1056000.00000000  0.000000000000000  6.501876158094304E-005  0.000000000000000 -1.387778780781446E-016
   1072000.00000000  0.000000000000000  1.394299277147750E-004  0.000000000000000 -2.775557561562891E-016
   1088000.00000000  0.000000000000000  6.501876158094304E-005  0.000000000000000 -1.387778780781446E-016
   1104000.00000000  0.000000000000000  1.394299277147750E-004  0.000000000000000 -2.775557561562891E-016
   1120000.00000000  0.000000000000000  6.501876158094304E-005  0.000000000000000 -1.387778780781446E-016
   1136000.00000000  0.000000000000000  1.394299277147750E-004  0.000000000000000 -2.775557561562891E-016
   1152000.00000000  0.000000000000000  6.501876158094304E-005  0.000000000000000 -1.387778780781446E-016
   1168000.00000000  0.000000000000000  1.394299277147750E-004  0.000000000000000 -2.775557561562891E-016
   1184000.00000000  0.000000000000000  6.501876158094304E-005  0.000000000000000 -1.387778780781446E-016
   1200000.00000000  0.000000000000000  1.394299277147750E-004  0.000000000000000 -2.775557561562891E-016
   1216000.00000000  0.000000000000000  6.501876158094304E-005  0.000000000000000 -1.387778780781446E-016
   1232000.00000000  0.000000000000000  1.394299277147750E-004  0.000000000000000 -2.775557561562891E-016
   1248000.00000000  0.000000000000000  6.501876158094304E-005  0.000000000000000 -1.387778780781446E-016
   1264000.00000000  0.000000000000000  1.394299277147750E-004  0.000000000000000 -2.775557561562891E-016
   1280000.00000000  0.000000000000000  6.501876158094304E-005  0.000000000000000 -1.387778780781446E-016
   1296000.00000000  0.000000000000000  1.394299277147750E-004  0.000000000000000 -2.775557561562891E-016
   1312000.00000000  0.000000000000000  6.501876158094304E-005  0.000000000000000 -1.387778780781446E-016
   1328000.00000000  0.000000000000000  1.394299277147750E-004  0.000000000000000 -2.775557561562891E-016
   1344000.00000000  0.000000000000000  6.501876158094304E-005  0.000000000000000 -1.387778780781446E-016
   1360000.00000000  0.000000000000000  1.394299277147750E-004  0.000000000000000 -2.775557561562891E-016
   1376000.00000000  0.000000000000000  6.501876158094304E-005  0.000000000000000 -1.387778780781446E-016
   1392000.00000000  0.000000000000000  1.394299277147750E-004  0.000000000000000 -2.775557561562891E-016
   1408000.00000000  0.000000000000000  6.501876158094304E-005  0.000000000000000 -1.387778780781446E-016
   1424000.00000000  0.000000000000000  1.394299277147750E-004  0.000000000000000 -2.775557561562891E-016
   1440000.00000000  0.000000000000000  6.501876158094304E-005  0.000000000000000 -1.387778780781446E-016
   1456000.00000000  0.000000000000000  1.394299277147750E-004  0.000000000000000 -2.775557561562891E-016
   1472000.00000000  0.000000000000000  6.501876158094304E-005  0.000000000000000 -1.387778780781446E-016
   1488000.00000000  0.000000000000000  1.394299277147750E-004  0.000000000000000 -2.775557561562891E-016
   1504000.00000000  0.000000000000000  6.501876158094304E-005  0.000000000000000 -1.387778780781446E-016
   1520000.00000000  0.000000000000000  1.394299277147750E-004  0.000000000000000 -2.775557561562891E-016
   1536000.00000000  0.000000000000000  6.501876158094304E-005  0.000000000000000 -1.387778780781446E-016
   1552000.00000000  0.000000000000000  1.394299277147750E-004  0.000000000000000 -2.775557561562891E-016
   1568000.00000000  0.000000000000000  6.501876158094304E-005  0.000000000000000 -1.387778780781446E-016
   1584000.00000000  0.000000000000000  1.394299277147750E-004  0.000000000000000 -2.775557561562891E-016
   1600000.00000000  0.000000000000000  1.300375231618861E-004 -5.421010862427522E-019 -1.387778780781446E-016
 zone f="point",i=  101
   0.000000000000000  0.000000000000000  1.174206258223733E-004  5.695689370228333E-007 -1.060964975013040E-004
   16000.0000000000  0.000000000000000  1.254216498788739E-004  8.233223466105065E-007 -9.880248416728465E-005
   32000.0000000000  0.000000000000000  5.871081722899318E-005  3.613652049178127E-007 -2.470039566365017E-005
   48000.0000000000  0.000000000000000  1.254223032934128E-004  0.000000000000000  6.245004513516506E-016
   64000.0000000000  0.000000000000000  5.871089837065644E-005  1.490777987167569E-018  8.673617379884035E-017
   80000.0000000000  0.000000000000000  1.254223032932847E-004  0.000000000000000 -2.775557561562891E-016
   96000.0000000000  0.000000000000000  5.871089837064044E-005  0.000000000000000 -1.387778780781446E-016
   112000.000000000  0.000000000000000  1.254223032932847E-004  0.000000000000000 -2.775557561562891E-016
   128000.000000000  0.000000000000000  5.871089837069113E-005  0.000000000000000 -1.387778780781446E-016
   144000.000000000  0.000000000000000  1.254223032936903E-004  0.000000000000000 -2.775557561562891E-016
   160000.000000000  0.000000000000000  5.900888717807813E-005 -1.761828530288945E-018  1.387778780781446E-016
   176000.000000000  0.000000000000000  1.252542578247510E-004  0.000000000000000  1.602884491802570E-013
   192000.000000000  0.000000000000000  5.676152084903207E-005  1.249000902703301E-015 -1.942890293094024E-014
   208000.000000000  0.000000000000000  1.207868042947957E-004  0.000000000000000 -7.105427357601002E-014
   224000.000000000  0.000000000000000  5.472931488345282E-005 -1.279809591636649E-012 -2.295941214924824E-012
   240000.000000000  0.000000000000000  1.082626988677919E-004  0.000000000000000  6.366462912410498E-011
   256000.000000000  0.000000000000000  4.449959014091609E-005  9.663381206337363E-012 -3.274180926382542E-010
   272000.000000000  0.000000000000000  8.665695440357110E-005  0.000000000000000 -4.547473508864641E-010
   288000.000000000  0.000000000000000  4.963188136566261E-005  3.338471860070413E-011 -6.732020496613700E-010
   304000.000000000  0.000000000000000  1.207867147614338E-004  0.000000000000000 -9.098277686803158E-012
   320000.000000000  0.000000000000000  5.279234934468432E-005  1.705302565824240E-012 -8.640199666842818E-011
   336000.000000000  0.000000000000000  1.002519632911565E-004  0.000000000000000 -1.273292582482100E-010
   352000.000000000  0.000000000000000  4.619879473682960E-005  6.281197784119286E-011 -1.034550223266706E-009
   368000.000000000  0.000000000000000  1.082608737727774E-004  0.000000000000000 -9.416112334292848E-010
   384000.000000000  0.000000000000000  5.472902063275571E-005  2.147587663259287E-014 -1.784683512084939E-012
   400000.000000000  0.000000000000000  1.207868135313765E-004  0.000000000000000 -1.942890293094024E-012
   416000.000000000  0.000000000000000  5.472902064117992E-005 -3.439679097105852E-012 -9.145573187652190E-011
   432000.000000000  0.000000000000000  1.082608738640257E-004  0.000000000000000 -1.091393642127514E-010
   448000.000000000  0.000000000000000  4.619887456672683E-005  5.684341886080801E-013 -5.911715561524034E-011
   464000.000000000  0.000000000000000  1.002519639889599E-004  0.000000000000000 -1.546140993013978E-010
   480000.000000000  0.000000000000000  5.279105132505146E-005  4.349645643664246E-013 -5.699496430366935E-011
   496000.000000000  0.000000000000000  1.207763300014502E-004  0.000000000000000 -9.689016255975957E-010
   512000.000000000  0.000000000000000  4.960894501531936E-005 -5.599076757789589E-011 -7.253220246639103E-010
   528000.000000000  0.000000000000000  8.665695384021292E-005  0.000000000000000 -3.819877747446299E-010
   544000.000000000  0.000000000000000  4.450075386474731E-005 -1.989519660128281E-012 -2.046363078989089E-010
   560000.000000000  0.000000000000000  1.082627295599448E-004  0.000000000000000 -4.549027821099116E-011
   576000.000000000  0.000000000000000  5.448645858232108E-005 -3.816391647148976E-016 -1.387778780781446E-014
   592000.000000000  0.000000000000000  1.215396445989842E-004  0.000000000000000 -4.440892098500626E-015
   608000.000000000  0.000000000000000  5.839135852886030E-005 -7.615165008995062E-016  9.211381657436846E-015
   624000.000000000  0.000000000000000  1.254223295745591E-004  0.000000000000000  1.387778780781446E-016
   640000.000000000  0.000000000000000  5.871090165590251E-005  5.421010862427522E-019 -3.469446951953614E-017
   656000.000000000  0.000000000000000  1.254223032932848E-004  0.000000000000000 -2.775557561562891E-016
   672000.000000000  0.000000000000000  5.871089837064047E-005  0.000000000000000 -1.387778780781446E-016
   688000.000000000  0.000000000000000  1.254223032932847E-004  0.000000000000000 -2.775557561562891E-016
   704000.000000000  0.000000000000000  5.871089837064044E-005  0.000000000000000 -1.387778780781446E-016
   720000.000000000  0.000000000000000  1.254223032932847E-004  0.000000000000000 -2.775557561562891E-016
   736000.000000000  0.000000000000000  5.871089837064044E-005  0.000000000000000 -1.387778780781446E-016
   752000.000000000  0.000000000000000  1.254223032932847E-004  0.000000000000000 -2.775557561562891E-016
   768000.000000000  0.000000000000000  5.871089837064044E-005  0.000000000000000 -1.387778780781446E-016
   784000.000000000  0.000000000000000  1.254223032932847E-004  0.000000000000000 -2.775557561562891E-016
   800000.000000000  0.000000000000000  5.871089837064044E-005  0.000000000000000 -1.387778780781446E-016
   816000.000000000  0.000000000000000  1.254223032932847E-004  0.000000000000000 -2.775557561562891E-016
   832000.000000000  0.000000000000000  5.871089837064044E-005  0.000000000000000 -1.387778780781446E-016
   848000.000000000  0.000000000000000  1.254223032932847E-004  0.000000000000000 -2.775557561562891E-016
   864000.000000000  0.000000000000000  5.871089837064044E-005  0.000000000000000 -1.387778780781446E-016
   880000.000000000  0.000000000000000  1.254223032932847E-004  0.000000000000000 -2.775557561562891E-016
   896000.000000000  0.000000000000000  5.871089837064044E-005  0.000000000000000 -1.387778780781446E-016
   912000.000000000  0.000000000000000  1.254223032932847E-004  0.000000000000000 -2.775557561562891E-016
   928000.000000000  0.000000000000000  5.871089837064044E-005  0.000000000000000 -1.387778780781446E-016
   944000.000000000  0.000000000000000  1.254223032932847E-004  0.000000000000000 -2.775557561562891E-016
   960000.000000000  0.000000000000000  5.871089837064044E-005  0.000000000000000 -1.387778780781446E-016
   976000.000000000  0.000000000000000  1.254223032932847E-004  0.000000000000000 -2.775557561562891E-016
   992000.000000000  0.000000000000000  5.871089837064044E-005  0.000000000000000 -1.387778780781446E-016
   1008000.00000000  0.000000000000000  1.254223032932847E-004  0.000000000000000 -2.775557561562891E-016
   1024000.00000000  0.000000000000000  5.871089837064044E-005  0.000000000000000 -1.387778780781446E-016
   1040000.00000000  0.000000000000000  1.254223032932847E-004  0.000000000000000 -2.775557561562891E-016
   1056000.00000000  0.000000000000000  5.871089837064044E-005  0.000000000000000 -1.387778780781446E-016
   1072000.00000000  0.000000000000000  1.254223032932847E-004  0.000000000000000 -2.775557561562891E-016
   1088000.00000000  0.000000000000000  5.871089837064044E-005  0.000000000000000 -1.387778780781446E-016
   1104000.00000000  0.000000000000000  1.254223032932847E-004  0.000000000000000 -2.775557561562891E-016
   1120000.00000000  0.000000000000000  5.871089837064044E-005  0.000000000000000 -1.387778780781446E-016
   1136000.00000000  0.000000000000000  1.254223032932847E-004  0.000000000000000 -2.775557561562891E-016
   1152000.00000000  0.000000000000000  5.871089837064044E-005  0.000000000000000 -1.387778780781446E-016
   1168000.00000000  0.000000000000000  1.254223032932847E-004  0.000000000000000 -2.775557561562891E-016
   1184000.00000000  0.000000000000000  5.871089837064044E-005  0.000000000000000 -1.387778780781446E-016
   1200000.00000000  0.000000000000000  1.254223032932847E-004  0.000000000000000 -2.775557561562891E-016