variables = "time","head","temp",                            "conc","vx","vz","sig_kk","kx"
zone
  1.00000000E+01   -4.36557457E-11    4.74447119E+01    9.00000000E-03    0.00000000E+00    0.00000000E+00   -3.35349070E+00    3.09000000E-02
  2.00000000E+01   -4.36557457E-11    4.74447119E+01    9.00000000E-03   -6.93889390E-17   -2.77555756E-15   -1.75519946E+01    3.09000000E-02
  3.00000000E+01   -8.73114914E-11    4.74447119E+01    9.00000000E-03   -3.46944695E-17   -5.55111512E-15   -1.75519946E+01    3.09000000E-02
  4.00000000E+01   -1.01863407E-10    4.74447119E+01    9.00000000E-03    1.73472348E-17   -5.82867088E-15   -1.75519946E+01    3.09000000E-02
  5.00000000E+01   -1.30967237E-10    4.74447119E+01    9.00000000E-03    1.38777878E-16   -8.32667268E-15   -1.75519946E+01    3.09000000E-02
  6.00000000E+01   -1.60071068E-10    4.74447119E+01    9.00000000E-03    2.77555756E-16   -7.21644966E-15   -1.75519946E+01    3.09000000E-02
  7.00000000E+01   -1.74622983E-10    4.74447119E+01    9.00000000E-03    3.81639165E-16   -9.99200722E-15   -1.75519946E+01    3.09000000E-02
  8.00000000E+01   -1.89174898E-10    4.74447119E+01    9.00000000E-03    4.33680869E-16   -1.02695630E-14   -1.75519946E+01    3.09000000E-02
  9.00000000E+01   -1.89174898E-10    4.74447119E+01    9.00000000E-03    3.81639165E-16   -8.88178420E-15   -1.75519946E+01    3.09000000E-02
  1.00000000E+02   -2.18278728E-10    4.74447119E+01    9.00000000E-03    3.64291930E-16   -9.15933995E-15   -1.75519946E+01    3.09000000E-02
  1.10000000E+02   -2.18278728E-10    4.74447119E+01    9.00000000E-03    3.64291930E-16   -1.02695630E-14   -1.75519946E+01    3.09000000E-02
  1.20000000E+02   -2.32830644E-10    4.74447119E+01    9.00000000E-03    3.64291930E-16   -9.71445147E-15   -3.53557073E+01    3.09000000E-02
  1.30000000E+02   -2.47382559E-10    4.74447119E+01    9.00000000E-03    3.64291930E-16   -9.71445147E-15   -3.53557073E+01    3.09000000E-02
  1.40000000E+02   -2.47382559E-10    4.74447119E+01    9.00000000E-03    3.64291930E-16   -1.02695630E-14   -3.53557073E+01    3.09000000E-02
  1.50000000E+02   -2.47382559E-10    4.74447119E+01    9.00000000E-03    4.68375339E-16   -8.60422844E-15   -3.53557073E+01    3.09000000E-02
  1.60000000E+02   -2.47382559E-10    4.74447119E+01    9.00000000E-03    4.68375339E-16   -8.60422844E-15   -3.53557073E+01    3.09000000E-02
  1.70000000E+02   -2.76486389E-10    4.74447119E+01    9.00000000E-03    4.68375339E-16   -8.60422844E-15   -3.53557073E+01    3.09000000E-02
  1.80000000E+02   -2.76486389E-10    4.74447119E+01    9.00000000E-03    4.68375339E-16   -9.71445147E-15   -3.53557073E+01    3.09000000E-02
  1.90000000E+02   -2.76486389E-10    4.74447119E+01    9.00000000E-03    4.68375339E-16   -9.71445147E-15   -3.53557073E+01    3.09000000E-02
  2.00000000E+02   -2.76486389E-10    4.74447119E+01    9.00000000E-03    4.68375339E-16   -9.15933995E-15   -3.53557073E+01    3.09000000E-02
  2.10000000E+02   -2.76486389E-10    4.74447119E+01    9.00000000E-03    3.98986399E-16   -9.15933995E-15   -3.53557073E+01    3.09000000E-02
  2.20000000E+02   -2.76486389E-10    4.74447119E+01    9.00000000E-03    3.64291930E-16   -8.60422844E-15   -5.97836804E+01    3.09000000E-02
  2.30000000E+02   -2.76486389E-10    4.74447119E+01    9.00000000E-03    3.64291930E-16   -8.60422844E-15   -5.97836804E+01    3.09000000E-02
  2.40000000E+02   -2.76486389E-10    4.74447119E+01    9.00000000E-03    3.64291930E-16   -8.60422844E-15   -5.97836804E+01    3.09000000E-02
  2.50000000E+02   -2.76486389E-10    4.74447119E+01    9.00000000E-03    3.64291930E-16   -8.60422844E-15   -5.97836804E+01    3.09000000E-02
  2.60000000E+02   -2.76486389E-10    4.74447119E+01    9.00000000E-03    3.46944695E-16   -8.32667268E-15   -5.97836804E+01    3.09000000E-02
  2.70000000E+02   -2.76486389E-10    4.74447119E+01    9.00000000E-03    3.46944695E-16   -8.32667268E-15   -5.97836804E+01    3.09000000E-02
  2.80000000E+02   -2.76486389E-10    4.74447119E+01    9.00000000E-03    3.46944695E-16   -8.32667268E-15   -5.97836804E+01    3.09000000E-02
  2.90000000E+02   -2.76486389E-10    4.74447119E+01    9.00000000E-03    3.46944695E-16   -8.32667268E-15   -5.97836804E+01    3.09000000E-02
  3.00000000E+02   -2.76486389E-10    4.74447119E+01    9.00000000E-03    3.12250226E-16   -7.77156117E-15   -5.97836804E+01    3.09000000E-02
  3.10000000E+02   -2.76486389E-10    4.74447119E+01    9.00000000E-03    2.94902991E-16   -7.49400542E-15   -5.97836804E+01    3.09000000E-02
  3.20000000E+02   -2.76486389E-10    4.74447119E+01    9.00000000E-03    2.08166817E-16   -7.77156117E-15   -9.35098697E+01    3.09000000E-02
  3.30000000E+02   -2.76486389E-10    4.74447119E+01    9.00000000E-03    5.20417043E-17   -7.49400542E-15   -9.35098697E+01    3.09000000E-02
  3.40000000E+02   -2.76486389E-10    4.74447119E+01    9.00000000E-03    1.73472348E-17   -7.49400542E-15   -9.35098697E+01    3.09000000E-02
  3.50000000E+02   -2.76486389E-10    4.74447119E+01    9.00000000E-03   -1.73472348E-17   -7.49400542E-15   -9.35098697E+01    3.09000000E-02
  3.60000000E+02   -2.76486389E-10    4.74447119E+01    9.00000000E-03   -1.73472348E-17   -7.49400542E-15   -9.35098697E+01    3.09000000E-02
  3.70000000E+02   -2.76486389E-10    4.74447119E+01    9.00000000E-03   -1.73472348E-17   -7.49400542E-15   -9.35098697E+01    3.09000000E-02
  3.80000000E+02   -2.76486389E-10    4.74447119E+01    9.00000000E-03   -1.73472348E-17   -7.49400542E-15   -9.35098697E+01    3.09000000E-02
  3.90000000E+02   -2.76486389E-10    4.74447119E+01    9.00000000E-03   -1.73472348E-17   -7.49400542E-15   -9.35098697E+01    3.09000000E-02
  4.00000000E+02   -2.76486389E-10    4.74447119E+01    9.00000000E-03   -3.46944695E-17   -7.21644966E-15   -9.35098697E+01    3.09000000E-02
  4.10000000E+02   -2.76486389E-10    4.74447119E+01    9.00000000E-03   -3.46944695E-17   -7.21644966E-15   -9.35098697E+01    3.09000000E-02
  4.20000000E+02   -2.76486389E-10    4.74447119E+01    9.00000000E-03   -3.46944695E-17   -7.21644966E-15   -1.25944387E+02    3.09000000E-02
  4.30000000E+02   -2.76486389E-10    4.74447119E+01    9.00000000E-03   -3.46944695E-17   -7.21644966E-15   -1.25944387E+02    3.09000000E-02
  4.40000000E+02   -2.76486389E-10    4.74447119E+01    9.00000000E-03   -3.46944695E-17   -7.21644966E-15   -1.25944387E+02    3.09000000E-02
  4.50000000E+02   -2.76486389E-10    4.74447119E+01    9.00000000E-03   -3.46944695E-17   -7.21644966E-15   -1.25944387E+02    3.09000000E-02
  4.60000000E+02   -2.76486389E-10    4.74447119E+01    9.00000000E-03   -3.46944695E-17   -7.21644966E-15   -1.25944387E+02    3.09000000E-02
  4.70000000E+02   -2.76486389E-10    4.74447119E+01    9.00000000E-03   -3.46944695E-17   -7.21644966E-15   -1.25944387E+02    3.09000000E-02
  4.80000000E+02   -2.76486389E-10    4.74447119E+01    9.00000000E-03   -3.46944695E-17   -7.21644966E-15   -1.25944387E+02    3.09000000E-02
  4.90000000E+02   -2.76486389E-10    4.74447119E+01    9.00000000E-03   -6.93889390E-17   -6.66133815E-15   -1.25944387E+02    3.09000000E-02
  5.00000000E+02   -2.76486389E-10    4.74447119E+01    9.00000000E-03   -1.56125113E-16   -6.38378239E-15   -1.25944387E+02    3.09000000E-02
  5.10000000E+02   -2.76486389E-10    4.74447119E+01    9.00000000E-03   -1.56125113E-16   -6.38378239E-15   -1.25944387E+02    3.09000000E-02
  5.20000000E+02   -2.76486389E-10    4.74447119E+01    9.00000000E-03   -1.56125113E-16   -6.38378239E-15   -1.57348579E+02    3.09000000E-02
  5.30000000E+02   -2.76486389E-10    4.74447119E+01    9.00000000E-03   -1.56125113E-16   -6.38378239E-15   -1.57348579E+02    3.09000000E-02
  5.40000000E+02   -2.76486389E-10    4.74447119E+01    9.00000000E-03   -1.56125113E-16   -6.38378239E-15   -1.57348579E+02    3.09000000E-02
  5.50000000E+02   -2.76486389E-10    4.74447119E+01    9.00000000E-03   -1.56125113E-16   -6.38378239E-15   -1.57348579E+02    3.09000000E-02
  5.60000000E+02   -2.76486389E-10    4.74447119E+01    9.00000000E-03   -1.56125113E-16   -6.38378239E-15   -1.57348579E+02    3.09000000E-02
  5.70000000E+02   -2.76486389E-10    4.74447119E+01    9.00000000E-03   -1.56125113E-16   -6.38378239E-15   -1.57348579E+02    3.09000000E-02
  5.80000000E+02   -2.76486389E-10    4.74447119E+01    9.00000000E-03   -1.56125113E-16   -6.38378239E-15   -1.57348579E+02    3.09000000E-02
  5.90000000E+02   -2.76486389E-10    4.74447119E+01    9.00000000E-03   -1.56125113E-16   -6.38378239E-15   -1.57348579E+02    3.09000000E-02
  6.00000000E+02   -2.76486389E-10    4.74447119E+01    9.00000000E-03   -1.56125113E-16   -6.38378239E-15   -1.57348579E+02    3.09000000E-02
  6.10000000E+02   -2.76486389E-10    4.74447119E+01    9.00000000E-03   -1.56125113E-16   -6.38378239E-15   -1.57348579E+02    3.09000000E-02
  6.20000000E+02   -2.76486389E-10    4.74447119E+01    9.00000000E-03   -1.56125113E-16   -6.38378239E-15   -2.00313424E+02    3.09000000E-02
  6.30000000E+02   -2.76486389E-10    4.74447119E+01    9.00000000E-03   -1.56125113E-16   -6.38378239E-15   -2.00313424E+02    3.09000000E-02
  6.40000000E+02   -2.76486389E-10    4.74447119E+01    9.00000000E-03   -1.56125113E-16   -6.38378239E-15   -2.00313424E+02    3.09000000E-02
  6.50000000E+02   -2.76486389E-10    4.74447119E+01    9.00000000E-03   -1.56125113E-16   -6.38378239E-15   -2.00313424E+02    3.09000000E-02
  6.60000000E+02   -2.76486389E-10    4.74447119E+01    9.00000000E-03   -1.56125113E-16   -6.38378239E-15   -2.00313424E+02    3.09000000E-02
  6.70000000E+02   -2.76486389E-10    4.74447119E+01    9.00000000E-03   -1.56125113E-16   -6.38378239E-15   -2.00313424E+02    3.09000000E-02
  6.80000000E+02   -2.76486389E-10    4.74447119E+01    9.00000000E-03   -1.56125113E-16   -6.38378239E-15   -2.00313424E+02    3.09000000E-02
  6.90000000E+02   -2.76486389E-10    4.74447119E+01    9.00000000E-03   -1.56125113E-16   -6.38378239E-15   -2.00313424E+02    3.09000000E-02
  7.00000000E+02   -2.76486389E-10    4.74447119E+01    9.00000000E-03   -1.56125113E-16   -6.38378239E-15   -2.00313424E+02    3.09000000E-02
  7.10000000E+02   -2.76486389E-10    4.74447119E+01    9.00000000E-03   -1.56125113E-16   -6.38378239E-15   -2.00313424E+02    3.09000000E-02
  7.20000000E+02   -2.76486389E-10    4.74447119E+01    9.00000000E-03   -1.56125113E-16   -6.38378239E-15   -2.39531932E+02    3.09000000E-02
  7.30000000E+02   -2.76486389E-10    4.74447119E+01    9.00000000E-03   -1.56125113E-16   -6.38378239E-15   -2.39531932E+02    3.09000000E-02
  7.40000000E+02   -2.76486389E-10    4.74447119E+01    9.00000000E-03   -1.56125113E-16   -6.38378239E-15   -2.39531932E+02    3.09000000E-02
  7.50000000E+02   -2.76486389E-10    4.74447119E+01    9.00000000E-03   -1.56125113E-16   -6.38378239E-15   -2.39531932E+02    3.09000000E-02
  7.60000000E+02   -2.76486389E-10    4.74447119E+01    9.00000000E-03   -1.56125113E-16   -6.38378239E-15   -2.39531932E+02    3.09000000E-02
  7.70000000E+02   -2.76486389E-10    4.74447119E+01    9.00000000E-03   -1.56125113E-16   -6.38378239E-15   -2.39531932E+02    3.09000000E-02
  7.80000000E+02   -2.76486389E-10    4.74447120E+01    9.00000000E-03   -1.56125113E-16   -6.38378239E-15   -2.39531932E+02    3.09000000E-02
  7.90000000E+02   -2.76486389E-10    4.74447120E+01    9.00000000E-03   -1.56125113E-16   -6.38378239E-15   -2.39531932E+02    3.09000000E-02
  8.00000000E+02   -2.76486389E-10    4.74447120E+01    9.00000000E-03   -1.56125113E-16   -6.38378239E-15   -2.39531932E+02    3.09000000E-02
  8.10000000E+02   -2.76486389E-10    4.74447120E+01    9.00000000E-03   -1.56125113E-16   -6.38378239E-15   -2.39531932E+02    3.09000000E-02
  8.20000000E+02   -2.76486389E-10    4.74447120E+01    9.00000000E-03   -1.56125113E-16   -6.38378239E-15   -2.70602396E+02    3.09000000E-02
  8.30000000E+02   -2.76486389E-10    4.74447120E+01    9.00000000E-03   -1.56125113E-16   -6.38378239E-15   -2.70602396E+02    3.09000000E-02
  8.40000000E+02   -2.76486389E-10    4.74447120E+01    9.00000000E-03   -1.56125113E-16   -6.38378239E-15   -2.70602396E+02    3.09000000E-02
  8.50000000E+02   -2.76486389E-10    4.74447120E+01    9.00000000E-03   -1.56125113E-16   -6.38378239E-15   -2.70602396E+02    3.09000000E-02
  8.60000000E+02   -2.76486389E-10    4.74447120E+01    9.00000000E-03   -1.56125113E-16   -6.38378239E-15   -2.70602396E+02    3.09000000E-02
  8.70000000E+02   -2.76486389E-10    4.74447120E+01    9.00000000E-03   -1.56125113E-16   -6.38378239E-15   -2.70602396E+02    3.09000000E-02
  8.80000000E+02   -2.76486389E-10    4.74447120E+01    9.00000000E-03   -1.56125113E-16   -6.38378239E-15   -2.70602396E+02    3.09000000E-02
  8.90000000E+02   -2.76486389E-10    4.74447120E+01    9.00000000E-03   -1.56125113E-16   -6.38378239E-15   -2.70602396E+02    3.09000000E-02
  9.00000000E+02   -2.76486389E-10    4.74447120E+01    9.00000000E-03   -1.56125113E-16   -6.38378239E-15   -2.70602396E+02    3.09000000E-02
  9.10000000E+02   -2.76486389E-10    4.74447120E+01    9.00000000E-03   -1.56125113E-16   -6.38378239E-15   -2.70602396E+02    3.09000000E-02
  9.20000000E+02   -2.76486389E-10    4.74447120E+01    9.00000000E-03   -1.56125113E-16   -6.38378239E-15   -3.18434186E+02    3.09000000E-02
  9.30000000E+02   -2.76486389E-10    4.74447120E+01    9.00000000E-03   -1.56125113E-16   -6.38378239E-15   -3.18434186E+02    3.09000000E-02
  9.40000000E+02   -2.76486389E-10    4.74447120E+01    9.00000000E-03   -1.56125113E-16   -6.38378239E-15   -3.18434186E+02    3.09000000E-02
  9.50000000E+02   -2.76486389E-10    4.74447121E+01    9.00000000E-03   -1.56125113E-16   -6.38378239E-15   -3.18434186E+02    3.09000000E-02
  9.60000000E+02   -2.76486389E-10    4.74447121E+01    9.00000000E-03   -1.56125113E-16   -6.38378239E-15   -3.18434186E+02    3.09000000E-02
  9.70000000E+02   -2.76486389E-10    4.74447121E+01    9.00000000E-03   -1.56125113E-16   -6.38378239E-15   -3.18434186E+02    3.09000000E-02
  9.80000000E+02   -2.76486389E-10    4.74447121E+01    9.00000000E-03   -1.56125113E-16   -6.38378239E-15   -3.18434186E+02    3.09000000E-02
  9.90000000E+02   -2.76486389E-10    4.74447121E+01    9.00000000E-03   -1.56125113E-16   -6.38378239E-15   -3.18434186E+02    3.09000000E-02
  1.00000000E+03   -2.76486389E-10    4.74447121E+01    9.00000000E-03   -1.56125113E-16   -6.38378239E-15   -3.18434186E+02    3.09000000E-02
  1.01000000E+03   -2.76486389E-10    4.74447121E+01    9.00000000E-03   -1.56125113E-16   -6.38378239E-15   -3.18434186E+02    3.09000000E-02
  1.02000000E+03   -2.76486389E-10    4.74447121E+01    9.00000000E-03   -1.56125113E-16   -6.38378239E-15   -3.60489920E+02    3.09000000E-02
  1.03000000E+03   -2.76486389E-10    4.74447121E+01    9.00000000E-03   -1.56125113E-16   -6.38378239E-15   -3.60489920E+02    3.09000000E-02
  1.04000000E+03   -2.76486389E-10    4.74447121E+01    9.00000000E-03   -1.56125113E-16   -6.38378239E-15   -3.60489920E+02    3.09000000E-02
  1.05000000E+03   -2.76486389E-10    4.74447120E+01    9.00000000E-03   -1.56125113E-16   -6.38378239E-15   -3.60489920E+02    3.09000000E-02
  1.06000000E+03   -2.76486389E-10    4.74447120E+01    9.00000000E-03   -1.56125113E-16   -6.38378239E-15   -3.60489920E+02    3.09000000E-02
  1.07000000E+03   -2.76486389E-10    4.74447120E+01    9.00000000E-03   -1.56125113E-16   -6.38378239E-15   -3.60489920E+02    3.09000000E-02
  1.08000000E+03   -2.76486389E-10    4.74447120E+01    9.00000000E-03   -1.56125113E-16   -6.38378239E-15   -3.60489920E+02    3.09000000E-02
  1.09000000E+03   -2.76486389E-10    4.74447120E+01    9.00000000E-03   -1.56125113E-16   -6.38378239E-15   -3.60489920E+02    3.09000000E-02
  1.10000000E+03   -2.76486389E-10    4.74447120E+01    9.00000000E-03   -1.56125113E-16   -6.38378239E-15   -3.60489920E+02    3.09000000E-02
  1.11000000E+03   -2.76486389E-10    4.74447119E+01    9.00000000E-03   -1.56125113E-16   -6.38378239E-15   -3.60489920E+02    3.09000000E-02
  1.12000000E+03   -2.76486389E-10    4.74447119E+01    9.00000000E-03   -1.56125113E-16   -6.38378239E-15   -3.86862563E+02    3.09000000E-02
  1.13000000E+03   -2.76486389E-10    4.74447119E+01    9.00000000E-03   -1.56125113E-16   -6.38378239E-15   -3.86862563E+02    3.09000000E-02
  1.14000000E+03   -2.76486389E-10    4.74447118E+01    9.00000000E-03   -1.56125113E-16   -6.38378239E-15   -3.86862563E+02    3.09000000E-02
  1.15000000E+03   -2.76486389E-10    4.74447118E+01    9.00000000E-03   -1.56125113E-16   -6.38378239E-15   -3.86862563E+02    3.09000000E-02
  1.16000000E+03   -2.76486389E-10    4.74447117E+01    9.00000000E-03   -1.56125113E-16   -6.38378239E-15   -3.86862563E+02    3.09000000E-02
  1.17000000E+03   -2.76486389E-10    4.74447116E+01    9.00000000E-03   -1.56125113E-16   -6.38378239E-15   -3.86862563E+02    3.09000000E-02
  1.18000000E+03   -2.76486389E-10    4.74447116E+01    9.00000000E-03   -1.56125113E-16   -6.38378239E-15   -3.86862563E+02    3.09000000E-02
  1.19000000E+03   -2.76486389E-10    4.74447115E+01    9.00000000E-03   -1.56125113E-16   -6.38378239E-15   -3.86862563E+02    3.09000000E-02
  1.20000000E+03   -2.76486389E-10    4.74447114E+01    9.00000000E-03   -1.56125113E-16   -6.38378239E-15   -3.86862563E+02    3.09000000E-02
  1.21000000E+03   -2.76486389E-10    4.74447113E+01    9.00000000E-03   -1.56125113E-16   -6.38378239E-15   -3.86862563E+02    3.09000000E-02
  1.22000000E+03   -2.76486389E-10    4.74447112E+01    9.00000000E-03   -1.56125113E-16   -6.38378239E-15   -4.37729550E+02    3.09000000E-02
  1.23000000E+03   -2.76486389E-10    4.74447111E+01    9.00000000E-03   -1.56125113E-16   -6.38378239E-15   -4.37729550E+02    3.09000000E-02
  1.24000000E+03   -2.76486389E-10    4.74447109E+01    9.00000000E-03   -1.56125113E-16   -6.38378239E-15   -4.37729550E+02    3.09000000E-02
  1.25000000E+03   -2.76486389E-10    4.74447108E+01    9.00000000E-03   -1.56125113E-16   -6.38378239E-15   -4.37729550E+02    3.09000000E-02
  1.26000000E+03   -2.76486389E-10    4.74447106E+01    9.00000000E-03   -1.56125113E-16   -6.38378239E-15   -4.37729550E+02    3.09000000E-02
  1.27000000E+03   -2.76486389E-10    4.74447105E+01    9.00000000E-03   -1.56125113E-16   -6.38378239E-15   -4.37729550E+02    3.09000000E-02
  1.28000000E+03   -2.76486389E-10    4.74447103E+01    9.00000000E-03   -1.56125113E-16   -6.38378239E-15   -4.37729550E+02    3.09000000E-02
  1.29000000E+03   -2.76486389E-10    4.74447101E+01    9.00000000E-03   -1.56125113E-16   -6.38378239E-15   -4.37729550E+02    3.09000000E-02
  1.30000000E+03   -2.76486389E-10    4.74447099E+01    9.00000000E-03   -1.56125113E-16   -6.38378239E-15   -4.37729550E+02    3.09000000E-02
  1.31000000E+03   -2.76486389E-10    4.74447096E+01    9.00000000E-03   -1.56125113E-16   -6.38378239E-15   -4.37729550E+02    3.09000000E-02
  1.32000000E+03   -2.76486389E-10    4.74447094E+01    9.00000000E-03   -1.56125113E-16   -6.38378239E-15   -4.80026569E+02    3.09000000E-02
  1.33000000E+03   -2.76486389E-10    4.74447091E+01    9.00000000E-03   -1.56125113E-16   -6.38378239E-15   -4.80026569E+02    3.09000000E-02
  1.34000000E+03   -2.76486389E-10    4.74447088E+01    9.00000000E-03   -1.56125113E-16   -6.38378239E-15   -4.80026569E+02    3.09000000E-02
  1.35000000E+03   -2.76486389E-10    4.74447085E+01    9.00000000E-03   -1.56125113E-16   -6.38378239E-15   -4.80026569E+02    3.09000000E-02
  1.36000000E+03   -2.76486389E-10    4.74447081E+01    9.00000000E-03   -1.56125113E-16   -6.38378239E-15   -4.80026569E+02    3.09000000E-02
  1.37000000E+03   -2.76486389E-10    4.74447077E+01    9.00000000E-03   -1.56125113E-16   -6.38378239E-15   -4.80026569E+02    3.09000000E-02
  1.38000000E+03   -2.76486389E-10    4.74447073E+01    9.00000000E-03   -1.56125113E-16   -6.38378239E-15   -4.80026569E+02    3.09000000E-02
  1.39000000E+03   -2.76486389E-10    4.74447069E+01    9.00000000E-03   -1.56125113E-16   -6.38378239E-15   -4.80026569E+02    3.09000000E-02
  1.40000000E+03   -2.76486389E-10    4.74447064E+01    9.00000000E-03   -1.56125113E-16   -6.38378239E-15   -4.80026569E+02    3.09000000E-02
  1.41000000E+03   -2.76486389E-10    4.74447059E+01    9.00000000E-03   -1.56125113E-16   -6.38378239E-15   -4.80026569E+02    3.09000000E-02
  1.42000000E+03   -2.76486389E-10    4.74447054E+01    9.00000000E-03   -1.56125113E-16   -6.38378239E-15   -4.98247738E+02    3.09000000E-02
  1.43000000E+03   -2.76486389E-10    4.74447049E+01    9.00000000E-03   -1.56125113E-16   -6.38378239E-15   -4.98247738E+02    3.09000000E-02
  1.44000000E+03   -2.76486389E-10    4.74447043E+01    9.00000000E-03   -1.56125113E-16   -6.38378239E-15   -4.98247738E+02    3.09000000E-02
  1.45000000E+03   -2.76486389E-10    4.74447036E+01    9.00000000E-03   -1.56125113E-16   -6.38378239E-15   -4.98247738E+02    3.09000000E-02
  1.46000000E+03   -2.76486389E-10    4.74447030E+01    9.00000000E-03   -1.56125113E-16   -6.38378239E-15   -4.98247738E+02    3.09000000E-02
  1.47000000E+03   -2.76486389E-10    4.74447022E+01    9.00000000E-03   -1.56125113E-16   -6.38378239E-15   -4.98247738E+02    3.09000000E-02
  1.48000000E+03   -2.76486389E-10    4.74447015E+01    9.00000000E-03   -1.56125113E-16   -6.38378239E-15   -4.98247738E+02    3.09000000E-02
  1.49000000E+03   -2.76486389E-10    4.74447007E+01    9.00000000E-03   -1.56125113E-16   -6.38378239E-15   -4.98247738E+02    3.09000000E-02
  1.50000000E+03   -2.76486389E-10    4.74446998E+01    9.00000000E-03   -1.56125113E-16   -6.38378239E-15   -4.98247738E+02    3.09000000E-02
  1.51000000E+03   -2.76486389E-10    4.74446989E+01    9.00000000E-03   -1.56125113E-16   -6.38378239E-15   -4.98247738E+02    3.09000000E-02
  1.52000000E+03   -2.76486389E-10    4.74446980E+01    9.00000000E-03   -1.56125113E-16   -6.38378239E-15   -5.51313786E+02    3.09000000E-02
  1.53000000E+03   -2.76486389E-10    4.74446970E+01    9.00000000E-03   -1.56125113E-16   -6.38378239E-15   -5.51313786E+02    3.09000000E-02
  1.54000000E+03   -2.76486389E-10    4.74446959E+01    9.00000000E-03   -1.56125113E-16   -6.38378239E-15   -5.51313786E+02    3.09000000E-02
  1.55000000E+03   -2.76486389E-10    4.74446948E+01    9.00000000E-03   -1.56125113E-16   -6.38378239E-15   -5.51313786E+02    3.09000000E-02
  1.56000000E+03   -2.76486389E-10    4.74446936E+01    9.00000000E-03   -1.56125113E-16   -6.38378239E-15   -5.51313786E+02    3.09000000E-02
  1.57000000E+03   -2.76486389E-10    4.74446923E+01    9.00000000E-03   -1.56125113E-16   -6.38378239E-15   -5.51313786E+02    3.09000000E-02
  1.58000000E+03   -2.76486389E-10    4.74446910E+01    9.00000000E-03   -1.56125113E-16   -6.38378239E-15   -5.51313786E+02    3.09000000E-02
  1.59000000E+03   -2.76486389E-10    4.74446896E+01    9.00000000E-03   -1.56125113E-16   -6.38378239E-15   -5.51313786E+02    3.09000000E-02
  1.60000000E+03   -2.76486389E-10    4.74446881E+01    9.00000000E-03   -1.56125113E-16   -6.38378239E-15   -5.51313786E+02    3.09000000E-02
  1.61000000E+03   -2.76486389E-10    4.74446866E+01    9.00000000E-03   -1.56125113E-16   -6.38378239E-15   -5.51313786E+02    3.09000000E-02
  1.62000000E+03   -2.76486389E-10    4.74446850E+01    9.00000000E-03   -1.56125113E-16   -6.38378239E-15   -5.91477216E+02    3.09000000E-02
  1.63000000E+03   -2.76486389E-10    4.74446833E+01    9.00000000E-03   -1.56125113E-16   -6.38378239E-15   -5.91477216E+02    3.09000000E-02
  1.64000000E+03   -2.76486389E-10    4.74446815E+01    9.00000000E-03   -1.56125113E-16   -6.38378239E-15   -5.91477216E+02    3.09000000E-02
  1.65000000E+03   -2.76486389E-10    4.74446797E+01    9.00000000E-03   -1.56125113E-16   -6.38378239E-15   -5.91477216E+02    3.09000000E-02
  1.66000000E+03   -2.76486389E-10    4.74446777E+01    9.00000000E-03   -1.56125113E-16   -6.38378239E-15   -5.91477216E+02    3.09000000E-02
  1.67000000E+03   -2.76486389E-10    4.74446757E+01    9.00000000E-03   -1.56125113E-16   -6.38378239E-15   -5.91477216E+02    3.09000000E-02
  1.68000000E+03   -2.76486389E-10    4.74446735E+01    9.00000000E-03   -1.56125113E-16   -6.38378239E-15   -5.91477216E+02    3.09000000E-02
  1.69000000E+03   -2.76486389E-10    4.74446713E+01    9.00000000E-03   -1.56125113E-16   -6.38378239E-15   -5.91477216E+02    3.09000000E-02
  1.70000000E+03   -2.76486389E-10    4.74446689E+01    9.00000000E-03   -1.56125113E-16   -6.38378239E-15   -5.91477216E+02    3.09000000E-02
  1.71000000E+03   -2.76486389E-10    4.74446665E+01    9.00000000E-03   -1.56125113E-16   -6.38378239E-15   -5.91477216E+02    3.09000000E-02
  1.72000000E+03   -2.76486389E-10    4.74446639E+01    9.00000000E-03   -1.56125113E-16   -6.38378239E-15   -5.98358836E+02    3.09000000E-02
  1.73000000E+03   -2.76486389E-10    4.74446612E+01    9.00000000E-03   -1.56125113E-16   -6.38378239E-15   -5.98358836E+02    3.09000000E-02
  1.74000000E+03   -2.76486389E-10    4.74446584E+01    9.00000000E-03   -1.56125113E-16   -6.38378239E-15   -5.98358836E+02    3.09000000E-02
  1.75000000E+03   -2.76486389E-10    4.74446555E+01    9.00000000E-03   -1.56125113E-16   -6.38378239E-15   -5.98358836E+02    3.09000000E-02
  1.76000000E+03   -2.76486389E-10    4.74446525E+01    9.00000000E-03   -1.56125113E-16   -6.38378239E-15   -5.98358836E+02    3.09000000E-02
  1.77000000E+03   -2.76486389E-10    4.74446493E+01    9.00000000E-03   -1.56125113E-16   -6.38378239E-15   -5.98358836E+02    3.09000000E-02
  1.78000000E+03   -2.76486389E-10    4.74446460E+01    9.00000000E-03   -1.56125113E-16   -6.38378239E-15   -5.98358836E+02    3.09000000E-02
  1.79000000E+03   -2.76486389E-10    4.74446426E+01    9.00000000E-03   -1.56125113E-16   -6.38378239E-15   -5.98358836E+02    3.09000000E-02
  1.80000000E+03   -2.76486389E-10    4.74446390E+01    9.00000000E-03   -1.56125113E-16   -6.38378239E-15   -5.98358836E+02    3.09000000E-02
  1.81000000E+03   -2.76486389E-10    4.74446353E+01    9.00000000E-03   -1.56125113E-16   -6.38378239E-15   -5.98358836E+02    3.09000000E-02
  1.82000000E+03   -2.76486389E-10    4.74446314E+01    9.00000000E-03   -1.56125113E-16   -6.38378239E-15   -6.53210102E+02    3.09000000E-02
  1.83000000E+03   -2.76486389E-10    4.74446274E+01    9.00000000E-03   -1.56125113E-16   -6.38378239E-15   -6.53210102E+02    3.09000000E-02
  1.84000000E+03   -2.76486389E-10    4.74446232E+01    9.00000000E-03   -1.56125113E-16   -6.38378239E-15   -6.53210102E+02    3.09000000E-02
  1.85000000E+03   -2.76486389E-10    4.74446189E+01    9.00000000E-03   -1.56125113E-16   -6.38378239E-15   -6.53210102E+02    3.09000000E-02
  1.86000000E+03   -2.76486389E-10    4.74446144E+01    9.00000000E-03   -1.56125113E-16   -6.38378239E-15   -6.53210102E+02    3.09000000E-02
  1.87000000E+03   -2.76486389E-10    4.74446097E+01    9.00000000E-03   -1.56125113E-16   -6.38378239E-15   -6.53210102E+02    3.09000000E-02
  1.88000000E+03   -2.76486389E-10    4.74446048E+01    9.00000000E-03   -1.56125113E-16   -6.38378239E-15   -6.53210102E+02    3.09000000E-02
  1.89000000E+03   -2.76486389E-10    4.74445998E+01    9.00000000E-03   -1.56125113E-16   -6.38378239E-15   -6.53210102E+02    3.09000000E-02
  1.90000000E+03   -2.76486389E-10    4.74445946E+01    9.00000000E-03   -1.56125113E-16   -6.38378239E-15   -6.53210102E+02    3.09000000E-02
  1.91000000E+03   -2.76486389E-10    4.74445892E+01    9.00000000E-03   -1.56125113E-16   -6.38378239E-15   -6.53210102E+02    3.09000000E-02
  1.92000000E+03   -2.76486389E-10    4.74445836E+01    9.00000000E-03   -1.56125113E-16   -6.38378239E-15   -6.88612733E+02    3.09000000E-02
  1.93000000E+03   -2.76486389E-10    4.74445778E+01    9.00000000E-03   -1.56125113E-16   -6.38378239E-15   -6.88612733E+02    3.09000000E-02
  1.94000000E+03   -2.76486389E-10    4.74445718E+01    9.00000000E-03   -1.56125113E-16   -6.38378239E-15   -6.88612733E+02    3.09000000E-02
  1.95000000E+03   -2.76486389E-10    4.74445656E+01    9.00000000E-03   -1.56125113E-16   -6.38378239E-15   -6.88612733E+02    3.09000000E-02
  1.96000000E+03   -2.76486389E-10    4.74445591E+01    9.00000000E-03   -1.56125113E-16   -6.38378239E-15   -6.88612733E+02    3.09000000E-02
  1.97000000E+03   -2.76486389E-10    4.74445525E+01    9.00000000E-03   -1.56125113E-16   -6.38378239E-15   -6.88612733E+02    3.09000000E-02
  1.98000000E+03   -2.76486389E-10    4.74445456E+01    9.00000000E-03   -1.56125113E-16   -6.38378239E-15   -6.88612733E+02    3.09000000E-02
  1.99000000E+03   -2.76486389E-10    4.74445385E+01    9.00000000E-03   -1.56125113E-16   -6.38378239E-15   -6.88612733E+02    3.09000000E-02
  2.00000000E+03   -2.76486389E-10    4.74445311E+01    9.00000000E-03   -1.56125113E-16   -6.38378239E-15   -6.88612733E+02    3.09000000E-02
  2.01000000E+03   -2.76486389E-10    4.74445235E+01    9.00000000E-03   -1.56125113E-16   -6.38378239E-15   -6.88612733E+02    3.09000000E-02
  2.02000000E+03   -2.76486389E-10    4.74445157E+01    9.00000000E-03   -1.56125113E-16   -6.38378239E-15   -7.01057118E+02    3.09000000E-02
  2.03000000E+03   -2.76486389E-10    4.74445076E+01    9.00000000E-03   -1.56125113E-16   -6.38378239E-15   -7.01057118E+02    3.09000000E-02
  2.04000000E+03   -2.76486389E-10    4.74444993E+01    9.00000000E-03   -1.56125113E-16   -6.38378239E-15   -7.01057118E+02    3.09000000E-02
  2.05000000E+03   -2.76486389E-10    4.74444906E+01    9.00000000E-03   -1.56125113E-16   -6.38378239E-15   -7.01057118E+02    3.09000000E-02
  2.06000000E+03   -2.76486389E-10    4.74444818E+01    9.00000000E-03   -1.56125113E-16   -6.38378239E-15   -7.01057118E+02    3.09000000E-02
  2.07000000E+03   -2.76486389E-10    4.74444726E+01    9.00000000E-03   -1.56125113E-16   -6.38378239E-15   -7.01057118E+02    3.09000000E-02
  2.08000000E+03   -2.76486389E-10    4.74444632E+01    9.00000000E-03   -1.56125113E-16   -6.38378239E-15   -7.01057118E+02    3.09000000E-02
  2.09000000E+03   -2.76486389E-10    4.74444534E+01    9.00000000E-03   -1.56125113E-16   -6.38378239E-15   -7.01057118E+02    3.09000000E-02